Program Version,EnergyPlus-Darwin-64 8.1.0.009, YMD=2016.07.06 09:02
1,5,Environment Title[],Latitude[deg],Longitude[deg],Time Zone[],Elevation[m]
2,6,Day of Simulation[],Month[],Day of Month[],DST Indicator[1=yes 0=no],Hour[],StartMinute[],EndMinute[],DayType
3,3,Cumulative Day of Simulation[],Month[],Day of Month[],DST Indicator[1=yes 0=no],DayType  ! When Daily Report Variables Requested
4,2,Cumulative Days of Simulation[],Month[]  ! When Monthly Report Variables Requested
5,1,Cumulative Days of Simulation[] ! When Run Period Report Variables Requested
6,1,Environment,Site Outdoor Air Drybulb Temperature [C] !Hourly
7,1,Environment,Site Outdoor Air Relative Humidity [%] !Hourly
258,1,LIVING_L1,Surface Inside Face Temperature [C] !Hourly
259,1,LIVING_L2,Surface Inside Face Temperature [C] !Hourly
260,1,LIVING_L3,Surface Inside Face Temperature [C] !Hourly
261,1,LIVING_L4,Surface Inside Face Temperature [C] !Hourly
262,1,LIVING_L1,HAMT Surface Inside Face Temperature [C] !Hourly
263,1,LIVING_L1,HAMT Surface Inside Face Relative Humidity [%] !Hourly
264,1,LIVING_L1,HAMT Surface Inside Face Vapor Pressure [Pa] !Hourly
265,1,LIVING_L2,HAMT Surface Inside Face Temperature [C] !Hourly
266,1,LIVING_L2,HAMT Surface Inside Face Relative Humidity [%] !Hourly
267,1,LIVING_L2,HAMT Surface Inside Face Vapor Pressure [Pa] !Hourly
268,1,LIVING_L3,HAMT Surface Inside Face Temperature [C] !Hourly
269,1,LIVING_L3,HAMT Surface Inside Face Relative Humidity [%] !Hourly
270,1,LIVING_L3,HAMT Surface Inside Face Vapor Pressure [Pa] !Hourly
271,1,LIVING_L4,HAMT Surface Inside Face Temperature [C] !Hourly
272,1,LIVING_L4,HAMT Surface Inside Face Relative Humidity [%] !Hourly
273,1,LIVING_L4,HAMT Surface Inside Face Vapor Pressure [Pa] !Hourly
274,1,LIVING,Zone Mean Air Temperature [C] !Hourly
275,1,LIVING,Zone Operative Temperature [C] !Hourly
732,1,LIVING,Zone Air Relative Humidity [%] !Hourly
End of Data Dictionary
1,4250290 - UK WG data WMO#=03534,  52.48,  -1.67,   0.00,  96.00
2,1, 1, 1, 0, 1, 0.00,60.00,Monday         
6,7.86666666666667
7,78.5
258,15.1282316996751
259,15.2815095387159
260,14.6360968041727
261,15.0604260726744
262,15.1282316996751
263,45.2963784239107
264,778.928113785536
265,15.2815095387159
266,44.471809869253
267,772.325020665447
268,14.6360968041727
269,46.2840931872277
270,771.063512969044
271,15.0604260726744
272,45.5040820532336
273,779.092755518284
274,14.8343936357088
275,15.0954544074511
732,44.7547430510149
2,1, 1, 1, 0, 2, 0.00,60.00,Monday         
6,7.93333333333333
7,82.4166666666667
258,14.9098378092957
259,15.0159060156216
260,14.3482208928712
261,14.8424299638475
262,14.9098378092957
263,45.0649316653679
264,764.110893926106
265,15.0159060156216
266,44.3979229660745
267,757.961749958079
268,14.3482208928712
269,46.2196846187547
270,755.771093533333
271,14.8424299638475
272,45.2671916875627
273,764.212371934397
274,14.652710424653
275,14.8822820535425
732,44.5209095619
2,1, 1, 1, 0, 3, 0.00,60.00,Monday         
6,8.39166666666667
7,83.5
258,14.7814644338449
259,14.881560752098
260,14.1917013166494
261,14.7101939414302
262,14.7814644338449
263,45.0858905642151
264,758.162834870738
265,14.881560752098
266,44.5006218345384
267,753.166480821549
268,14.1917013166494
269,46.3491362530227
270,750.241591692836
271,14.7101939414302
272,45.2897646600672
273,758.096668128794
274,14.5455949085634
275,14.7542267717477
732,44.669033362269
2,1, 1, 1, 0, 4, 0.00,60.00,Monday         
6,9.06666666666667
7,83.9166666666667
258,14.6765423548637
259,14.773056282835
260,14.0689572013535
261,14.5992527145378
262,14.6765423548637
263,45.0243576953582
264,752.017609897107
265,14.773056282835
266,44.4967760445653
267,747.849385419877
268,14.0689572013535
269,46.3622893787952
270,744.504407958951
271,14.5992527145378
272,45.2343692471634
273,751.763335622797
274,14.4640112942982
275,14.6541453496394
732,44.6157434589018
2,1, 1, 1, 0, 5, 0.00,60.00,Monday         
6,8.58333333333333
7,90.6666666666667
258,14.583179277553
259,14.6754622975712
260,13.9769549387384
261,14.5006481910452
262,14.583179277553
263,45.0813046817973
264,748.441194404138
265,14.6754622975712
266,44.5899584206655
267,744.709407889575
268,13.9769549387384
269,46.4617062190408
270,741.658728452538
271,14.5006481910452
272,45.298585471319
273,748.047477044617
274,14.3509754020848
275,14.5441219778858
732,44.8960151791146
2,1, 1, 1, 0, 6, 0.00,60.00,Monday         
6,8.
7,88.75
258,14.4801829034759
259,14.5650236699471
260,13.8811134005065
261,14.3944393549265
262,14.4801829034759
263,45.0825375784073
264,743.497047910877
265,14.5650236699471
266,44.6188844559145
267,739.897439699811
268,13.8811134005065
269,46.4870462118141
270,737.460196588885
271,14.3944393549265
272,45.3048057460204
273,743.030036651905
274,14.2149947502881
275,14.4211256030444
732,44.9378531435983
2,1, 1, 1, 0, 7, 0.00,60.00,Monday         
6,8.58333333333333
7,84.4166666666667
258,14.6421993649435
259,14.8069077914435
260,14.1408937685465
261,14.5522566775144
262,14.6421993649435
263,44.8321420273983
264,747.158283315126
265,14.8069077914435
266,44.2988528389943
267,746.167116638412
268,14.1408937685465
269,46.1308283873245
270,744.268811160629
271,14.5522566775144
272,45.0599789795656
273,746.604254442165
274,15.215921822377
275,14.9786369298198
732,42.3311804315465
2,1, 1, 1, 0, 8, 0.00,60.00,Monday         
6,8.59166666666667
7,84.
258,14.8448020315152
259,15.0901947527955
260,14.4287412159168
261,14.7483141231136
262,14.8448020315152
263,44.7334527729447
264,755.313338698961
265,15.0901947527955
266,44.0580141697823
267,755.761171303935
268,14.4287412159168
269,45.8745594082158
270,754.042744911103
271,14.7483141231136
272,44.9709425507103
273,754.611779781352
274,15.440832562207
275,15.1851257991016
732,42.1287473628379
2,1, 1, 1, 0, 9, 0.00,60.00,Monday         
6,7.95
7,83.4166666666667
258,14.8919285785751
259,15.1246006154614
260,14.470860758123
261,14.7915755126583
262,14.8919285785751
263,44.5297710853583
264,754.16096732904
265,15.1246006154614
266,43.8188256142303
267,753.323229584185
268,14.470860758123
269,45.611689411735
270,751.765930138028
271,14.7915755126583
272,44.7713963975517
273,753.362076941894
274,15.1175675191778
275,15.0335511912098
732,42.9452937416636
2,1, 1, 1, 0,10, 0.00,60.00,Monday         
6,8.10833333333333
7,80.6666666666667
258,14.7418824371282
259,14.8855164243185
260,14.202251200401
261,14.6389755651538
262,14.7418824371282
263,44.5236964785372
264,746.813078037866
265,14.8855164243185
266,43.8901383466883
267,743.046020268589
268,14.202251200401
269,45.7281462101155
270,740.719098567757
271,14.6389755651538
272,44.772856642707
273,746.019494200067
274,14.5243537880141
275,14.6722510299075
732,43.9292937547568
2,1, 1, 1, 0,11, 0.00,60.00,Monday         
6,8.86666666666667
7,78.4166666666667
258,14.5465660358475
259,14.611047150987
260,13.9211194695226
261,14.444078668866
262,14.5465660358475
263,44.2737844932569
264,733.300664305011
265,14.611047150987
266,43.764466095455
267,727.891691722109
268,13.9211194695226
269,45.6170715798682
270,725.544053260028
271,14.444078668866
272,44.5228473052637
273,732.555381882548
274,14.3049672402175
275,14.4673159627041
732,43.7408238421395
2,1, 1, 1, 0,12, 0.00,60.00,Monday         
6,9.78333333333333
7,69.25
258,14.4606084489293
259,14.5143072081774
260,13.8297808062579
261,14.3568308054546
262,14.4606084489293
263,44.2068614040835
264,728.131213166552
265,14.5143072081774
266,43.7495559261757
267,723.105286622433
268,13.8297808062579
269,45.6085909918596
270,721.113370556825
271,14.3568308054546
272,44.4539537751511
273,727.301080162702
274,14.2676699365295
275,14.4307432425348
732,43.6882717899846
2,1, 1, 1, 0,13, 0.00,60.00,Monday         
6,9.73333333333333
7,65.3333333333333
258,14.5376451577976
259,14.638005075268
260,13.9627718787763
261,14.4293011177389
262,14.5376451577976
263,44.2006368386274
264,731.667141700016
265,14.638005075268
266,43.7208477269569
267,728.435572267367
268,13.9627718787763
269,45.5875977724044
270,727.042301262128
271,14.4293011177389
272,44.4565398059622
273,730.765408766543
274,14.4190912831097
275,14.643065456894
732,43.74686470762
2,1, 1, 1, 0,14, 0.00,60.00,Monday         
6,10.0416666666667
7,67.
258,14.6578166834331
259,14.823603075292
260,14.2107922741037
261,14.5461537104226
262,14.6578166834331
263,44.328929108742
264,739.510122405485
265,14.823603075292
266,43.7639186504739
267,737.938551838496
268,14.2107922741037
269,45.5853645831082
270,738.798545128965
271,14.5461537104226
272,44.5958067079546
273,738.614710785063
274,14.6335690965106
275,14.8633013594222
732,43.8468157776871
2,1, 1, 1, 0,15, 0.00,60.00,Monday         
6,10.5583333333333
7,65.8333333333333
258,14.8392025285358
259,15.07695804734
260,14.5483074977429
261,14.7247879179942
262,14.8392025285358
263,44.5198458694436
264,751.441439825411
265,15.07695804734
266,43.8317528139095
267,751.248237615673
268,14.5483074977429
269,45.5752017944997
270,754.949424643093
271,14.7247879179942
272,44.7976318540241
273,750.569578056149
274,14.9020243786605
275,15.1581397345265
732,44.0314679862628
2,1, 1, 1, 0,16, 0.00,60.00,Monday         
6,10.4833333333333
7,65.
258,14.8080500409839
259,15.0462174381009
260,14.6375170348466
261,14.6979439586767
262,14.8080500409839
263,44.7782803731335
264,754.280819475984
265,15.0462174381009
266,44.0255030024784
267,753.070958564949
268,14.6375170348466
269,45.642961343812
270,760.430559384837
271,14.6979439586767
272,45.0594328809467
273,753.643079044398
274,14.8369904125244
275,14.994850689523
732,44.3846964361298
2,1, 1, 1, 0,17, 0.00,60.00,Monday         
6,10.4
7,62.0833333333333
258,14.65748326308
259,14.8310357035666
260,14.4803632485775
261,14.5535143967371
262,14.65748326308
263,44.6650849635783
264,745.111168073745
265,14.8310357035666
266,43.9594611209997
267,741.604482661779
268,14.4803632485775
269,45.5044038673057
270,750.477701175436
271,14.5535143967371
272,44.9383677918519
273,744.651403214577
274,14.5311670492868
275,14.7221600746126
732,44.2115538449147
2,1, 1, 1, 0,18, 0.00,60.00,Monday         
6,10.1083333333333
7,64.0833333333333
258,14.8381965732563
259,15.0734258273724
260,14.7181632137685
261,14.741389705501
262,14.8381965732563
263,44.1342854553527
264,744.882214964162
265,15.0734258273724
266,43.367669255975
267,743.121941906785
268,14.7181632137685
269,44.8887177532656
270,751.771645565249
271,14.741389705501
272,44.3869015332272
273,744.48176183505
274,15.6508804334774
275,15.3337543470679
732,40.8713146484773
2,1, 1, 1, 0,19, 0.00,60.00,Monday         
6,9.375
7,65.25
258,15.1507197329768
259,15.4958553183419
260,15.1155447341476
261,15.0573515019518
262,15.1507197329768
263,43.7323609730683
264,753.107655613898
265,15.4958553183419
266,42.7948630862759
267,753.484373628081
268,15.1155447341476
269,44.3045787619869
270,761.235372994801
271,15.0573515019518
272,43.9818784425832
273,752.867585344314
274,15.9565894532073
275,15.6419893424182
732,40.4222179706753
2,1, 1, 1, 0,20, 0.00,60.00,Monday         
6,8.88333333333333
7,66.3333333333333
258,15.5979293751806
259,16.0546072992115
260,15.623797504188
261,15.5058724565545
262,15.5979293751806
263,43.3039563883624
264,767.462751168047
265,16.0546072992115
266,42.1768178888302
267,769.649177466005
268,15.623797504188
269,43.7025387145174
270,775.807615667315
271,15.5058724565545
272,43.5444628137341
273,767.182811846649
274,16.8382609244567
275,16.3226846845749
732,38.8570856529174
2,1, 1, 1, 0,21, 0.00,60.00,Monday         
6,9.26666666666667
7,68.5833333333333
258,16.0849994735586
259,16.6478895637363
260,16.1572157998059
261,16.002084071908
262,16.0849994735586
263,43.0817062481052
264,787.697517578127
265,16.6478895637363
266,41.7338514738816
267,790.915243848388
268,16.1572157998059
269,43.2936000293388
270,795.223816607037
271,16.002084071908
272,43.3094542479302
273,787.679031881399
274,17.477622618792
275,16.9034250090747
732,38.4225087655334
2,1, 1, 1, 0,22, 0.00,60.00,Monday         
6,9.25
7,70.1666666666667
258,16.2159928484549
259,16.7516863459862
260,16.2069470146237
261,16.1397298063853
262,16.2159928484549
263,43.5229974322409
264,802.416977929169
265,16.7516863459862
266,42.0884133818182
267,802.877247045165
268,16.2069470146237
269,43.6934517601663
270,805.083869104615
271,16.1397298063853
272,43.7403672063483
273,802.509969142691
274,16.8387521307154
275,16.6647518739526
732,41.4622945907286
2,1, 1, 1, 0,23, 0.00,60.00,Monday         
6,8.94166666666667
7,76.25
258,15.8844421712632
259,16.2130594516318
260,15.6155052910753
261,15.8108746838513
262,15.8844421712632
263,43.7942389395556
264,790.563397182436
265,16.2130594516318
266,42.561997889157
267,784.64406084864
268,15.6155052910753
269,44.2219115166254
270,784.688987901496
271,15.8108746838513
272,44.0042143605944
273,790.623672895034
274,15.8388831061808
275,15.9975946518214
732,43.0085621191774
2,1, 1, 1, 0,24, 0.00,60.00,Monday         
6,8.43333333333333
7,81.1666666666667
258,15.577388077356
259,15.7839603397386
260,15.1453061985193
261,15.5087704629822
262,15.577388077356
263,43.4555108886202
264,769.132566536898
265,15.7839603397386
266,42.4447693161348
267,761.250270610588
268,15.1453061985193
269,44.140463602584
270,759.876458261053
271,15.5087704629822
272,43.6547205962334
273,769.265793897576
274,15.4695814521241
275,15.6420959213048
732,42.6721786376134
End of Data
 Number of Records Written=         504
