Program Version,EnergyPlus-Darwin-64 8.1.0.009, YMD=2016.07.07 17:52
1,5,Environment Title[],Latitude[deg],Longitude[deg],Time Zone[],Elevation[m]
2,6,Day of Simulation[],Month[],Day of Month[],DST Indicator[1=yes 0=no],Hour[],StartMinute[],EndMinute[],DayType
3,3,Cumulative Day of Simulation[],Month[],Day of Month[],DST Indicator[1=yes 0=no],DayType  ! When Daily Report Variables Requested
4,2,Cumulative Days of Simulation[],Month[]  ! When Monthly Report Variables Requested
5,1,Cumulative Days of Simulation[] ! When Run Period Report Variables Requested
6,1,Environment,Site Outdoor Air Drybulb Temperature [C] !Hourly
7,1,Environment,Site Outdoor Air Relative Humidity [%] !Hourly
199,1,LIVING,Zone Operative Temperature [C] !Hourly
200,1,BEDROOM1,Zone Operative Temperature [C] !Hourly
233,1,LIVING,AFN Zone Infiltration Air Change Rate [ach] !Hourly
234,1,KITCHEN,AFN Zone Infiltration Air Change Rate [ach] !Hourly
235,1,BEDROOM1,AFN Zone Infiltration Air Change Rate [ach] !Hourly
236,11,TOPHALL,Zone Air System Sensible Heating Energy [J] !RunPeriod [Value,Min,Month,Day,Hour,Minute,Max,Month,Day,Hour,Minute]
308,11,BEDROOM2,Zone Air System Sensible Heating Energy [J] !RunPeriod [Value,Min,Month,Day,Hour,Minute,Max,Month,Day,Hour,Minute]
340,11,STAIRCASE,Zone Air System Sensible Heating Energy [J] !RunPeriod [Value,Min,Month,Day,Hour,Minute,Max,Month,Day,Hour,Minute]
372,11,BEDROOM3,Zone Air System Sensible Heating Energy [J] !RunPeriod [Value,Min,Month,Day,Hour,Minute,Max,Month,Day,Hour,Minute]
404,11,DINING,Zone Air System Sensible Heating Energy [J] !RunPeriod [Value,Min,Month,Day,Hour,Minute,Max,Month,Day,Hour,Minute]
500,11,HALL,Zone Air System Sensible Heating Energy [J] !RunPeriod [Value,Min,Month,Day,Hour,Minute,Max,Month,Day,Hour,Minute]
532,11,LIVING,Zone Air System Sensible Heating Energy [J] !RunPeriod [Value,Min,Month,Day,Hour,Minute,Max,Month,Day,Hour,Minute]
564,1,LIVING,Zone Air Relative Humidity [%] !Hourly
565,11,BATH1,Zone Air System Sensible Heating Energy [J] !RunPeriod [Value,Min,Month,Day,Hour,Minute,Max,Month,Day,Hour,Minute]
597,1,BATH1,Zone Air Relative Humidity [%] !Hourly
598,11,KITCHEN,Zone Air System Sensible Heating Energy [J] !RunPeriod [Value,Min,Month,Day,Hour,Minute,Max,Month,Day,Hour,Minute]
630,1,KITCHEN,Zone Air Relative Humidity [%] !Hourly
631,11,BEDROOM1,Zone Air System Sensible Heating Energy [J] !RunPeriod [Value,Min,Month,Day,Hour,Minute,Max,Month,Day,Hour,Minute]
663,1,BEDROOM1,Zone Air Relative Humidity [%] !Hourly
664,1,LIVING,Zone Air Generic Air Contaminant Concentration [ppm] !Hourly
665,1,KITCHEN,Zone Air Generic Air Contaminant Concentration [ppm] !Hourly
666,1,BEDROOM1,Zone Air Generic Air Contaminant Concentration [ppm] !Hourly
End of Data Dictionary
1,GreaterLondon - UK MIDAS WMO#=,  51.30,  -0.09,   0.00,  96.00
2,1, 1, 1, 0, 1, 0.00,60.00,Monday         
6,-0.633333333333333
7,86.2333333333333
199,15.4888119006803
200,16.2725279420554
233,0.727728368348958
234,0.994534419180447
235,0.468874403570365
564,28.3847521513394
597,39.3122639234455
630,32.3565399920762
663,27.6084938904204
664,5.344561649455384E-002
665,5.439802432994609E-002
666,4.930738715840782E-002
2,1, 1, 1, 0, 2, 0.00,60.00,Monday         
6,0.141666666666667
7,88.3416666666667
199,15.4324136023506
200,16.2723453908258
233,0.183143732710807
234,1.38554545142374
235,0.0
564,30.1121684858948
597,45.0625898601829
630,38.034877865933
663,27.6307246774489
664,5.239438079555572E-002
665,5.589902313753638E-002
666,4.768846928221968E-002
2,1, 1, 1, 0, 3, 0.00,60.00,Monday         
6,0.1
7,88.3
199,15.214469483073
200,16.1897513149303
233,0.214604625087082
234,1.28529022715841
235,0.0
564,31.8265945517177
597,46.0447826722215
630,39.5065681806226
663,28.8644632856361
664,5.135054041353814E-002
665,5.566919197215407E-002
666,4.695919730302034E-002
2,1, 1, 1, 0, 4, 0.00,60.00,Monday         
6,0.1
7,87.1333333333333
199,14.9463462042464
200,16.0719681568401
233,0.225126718423313
234,1.29407700363107
235,0.0
564,32.8912696378727
597,46.4065439358145
630,39.9783583855833
663,29.9416776545643
664,5.127450540492959E-002
665,5.557720595433491E-002
666,4.648019640193869E-002
2,1, 1, 1, 0, 5, 0.00,60.00,Monday         
6,-0.133333333333333
7,87.0583333333333
199,14.703553040297
200,15.9340259349611
233,0.210220148406567
234,1.28750271063113
235,0.0
564,33.277224454702
597,46.3233290202943
630,39.8983407293223
663,30.5992011985218
664,5.120162820345896E-002
665,5.562753131737082E-002
666,4.647951633208277E-002
2,1, 1, 1, 0, 6, 0.00,60.00,Monday         
6,-0.65
7,87.1916666666667
199,14.2374527652733
200,15.6033486425867
233,0.541651042563161
234,1.04794335430497
235,0.361830705349822
564,33.6749041921146
597,44.9711347462752
630,39.243451019115
663,30.9867505804647
664,5.270342371791870E-002
665,5.521671650757681E-002
666,4.846277087344119E-002
2,1, 1, 1, 0, 7, 0.00,60.00,Monday         
6,-1.36666666666667
7,84.8
199,14.9783644472773
200,16.0027699047598
233,0.136972568029896
234,1.17974278363334
235,0.0
564,30.3732387552674
597,43.2584939939091
630,35.6443428941648
663,28.8935821048221
664,5.132402899762182E-002
665,5.471813902126152E-002
666,4.847887117941915E-002
2,1, 1, 1, 0, 8, 0.00,60.00,Monday         
6,-1.525
7,82.4833333333333
199,15.1737859657824
200,16.065067308828
233,0.167496657242248
234,1.20610689302348
235,0.0
564,29.1040111942299
597,44.3329951237052
630,51.4852289672819
663,28.2147308963706
664,5.022282948278967E-002
665,5.407955240120938E-002
666,4.726216353680293E-002
2,1, 1, 1, 0, 9, 0.00,60.00,Monday         
6,-1.4
7,80.7333333333333
199,15.0015988233512
200,15.4998216387967
233,3.927425666916631E-002
234,1.17839077004627
235,0.0
564,32.1687594030566
597,43.9356932923437
630,70.4487248356335
663,33.0884282957812
664,4.931525012741739E-002
665,5.374558070256921E-002
666,4.704564306474204E-002
2,1, 1, 1, 0,10, 0.00,60.00,Monday         
6,-0.875
7,78.325
199,16.8121979711236
200,16.1153164394402
233,0.157226130431114
234,0.990261650917184
235,0.0
564,32.553352651195
597,44.7124559505433
630,50.9278139436755
663,35.9940628606628
664,4.874201721204263E-002
665,5.374330110625172E-002
666,4.669756204462847E-002
2,1, 1, 1, 0,11, 0.00,60.00,Monday         
6,-0.15
7,79.125
199,18.3155340092645
200,17.0006705905964
233,0.594386779024324
234,1.02868368108478
235,0.353049208067547
564,29.8685770082379
597,46.1636600861884
630,38.6559692568655
663,33.1753674687163
664,5.101103699928731E-002
665,5.413223425028013E-002
666,4.708641830102317E-002
2,1, 1, 1, 0,12, 0.00,60.00,Monday         
6,0.625
7,80.675
199,19.2733108128204
200,17.6506839855937
233,0.599536805743359
234,0.981482085073293
235,0.396671439852356
564,27.6131963226753
597,45.2728222061942
630,37.118131924271
663,29.5748854236109
664,5.358140208377391E-002
665,5.495338624783475E-002
666,4.871278966702349E-002
2,1, 1, 1, 0,13, 0.00,60.00,Monday         
6,1.23333333333333
7,76.7166666666667
199,20.1857442369037
200,18.6448467060915
233,0.117600564207544
234,1.37172841889842
235,0.0
564,26.399489815723
597,47.0850354742495
630,93.2865159944487
663,27.1889453476925
664,5.204793264704885E-002
665,5.432652849635328E-002
666,4.803370807643342E-002
2,1, 1, 1, 0,14, 0.00,60.00,Monday         
6,1.63333333333333
7,67.9666666666667
199,21.4175935089751
200,19.156335513492
233,0.0
234,1.4370530110172
235,0.0
564,28.1239026468577
597,45.1712022007498
630,80.2963846448151
663,27.5109395119377
664,4.967613316447542E-002
665,5.449708264227874E-002
666,4.795781510561251E-002
2,1, 1, 1, 0,15, 0.00,60.00,Monday         
6,1.50833333333333
7,66.25
199,21.9866293467056
200,19.4807600432824
233,5.152217511368360E-002
234,1.15160982969138
235,0.0
564,32.3814782834818
597,40.0049368898599
630,45.7840922658624
663,28.7874937936083
664,4.740807074237962E-002
665,5.412737045904809E-002
666,4.762976552796665E-002
2,1, 1, 1, 0,16, 0.00,60.00,Monday         
6,0.716666666666667
7,69.8666666666667
199,21.6237526081669
200,19.3233807919246
233,0.178901677935494
234,0.990795620168797
235,0.0
564,31.5994662528467
597,42.0269440323325
630,34.1520031254556
663,29.3752658858259
664,4.800147345625999E-002
665,5.324504396776272E-002
666,4.632604836692591E-002
2,1, 1, 1, 0,17, 0.00,60.00,Monday         
6,-0.516666666666667
7,72.8916666666667
199,19.6796425541384
200,18.0732681820664
233,0.262287556180168
234,1.03407455373685
235,0.0
564,31.2185088580275
597,42.736355833389
630,29.8784781309161
663,30.2375113753265
664,4.964558388552227E-002
665,5.374189088086801E-002
666,4.578784647101206E-002
2,1, 1, 1, 0,18, 0.00,60.00,Monday         
6,-1.39166666666667
7,79.6416666666667
199,18.8895563192903
200,17.859691641023
233,0.295102534136832
234,1.10493660824077
235,0.0
564,29.839334335381
597,39.7261249910075
630,28.4543045266827
663,27.9436440211468
664,5.095382879159851E-002
665,5.449324812780897E-002
666,4.622597578944772E-002
2,1, 1, 1, 0,19, 0.00,60.00,Monday         
6,-2.125
7,86.6333333333333
199,18.3422331632958
200,17.7771204503543
233,0.377041282234472
234,1.46388997735748
235,0.0
564,29.8034036350638
597,40.8149971132999
630,85.1168855671557
663,26.5766836844911
664,5.208008645529202E-002
665,5.504253658583535E-002
666,4.677039239524670E-002
2,1, 1, 1, 0,20, 0.00,60.00,Monday         
6,-2.5
7,88.8
199,17.8967049208138
200,17.6839272816178
233,0.363039987991816
234,1.32908625269283
235,0.0
564,28.7736653404198
597,46.0821448559988
630,50.6260555604496
663,29.9772817829437
664,5.245044874561145E-002
665,5.499254413279939E-002
666,4.802446690582072E-002
2,1, 1, 1, 0,21, 0.00,60.00,Monday         
6,-2.55833333333333
7,89.9083333333333
199,17.7913767602883
200,17.5690333475715
233,0.458101139526995
234,1.20588886132064
235,0.139078347737472
564,28.8857591237194
597,45.146343809971
630,46.9369935380219
663,31.0425004295952
664,5.275606780135560E-002
665,5.568024466584026E-002
666,4.887239274574381E-002
2,1, 1, 1, 0,22, 0.00,60.00,Monday         
6,-2.36666666666667
7,89.7083333333333
199,17.5023627737968
200,16.8093414542985
233,0.581266982826475
234,0.98096373598487
235,0.274650573390946
564,30.425841592801
597,44.8016196942102
630,47.905197186132
663,30.9991616872027
664,5.295635653739213E-002
665,5.525146191193026E-002
666,4.899041387961909E-002
2,1, 1, 1, 0,23, 0.00,60.00,Monday         
6,-2.25833333333333
7,86.375
199,16.5631849444524
200,16.5952699942977
233,0.601053949004075
234,0.907829868476382
235,0.342955575441293
564,30.5670861916808
597,42.5092115360686
630,37.2629385416521
663,30.0015015342159
664,5.294792023432965E-002
665,5.454194936869222E-002
666,4.902760596886460E-002
2,1, 1, 1, 0,24, 0.00,60.00,Monday         
6,-2.00833333333333
7,83.7416666666667
199,15.9921823057041
200,16.4439454892541
233,0.515006127175245
234,1.0475007376652
235,0.203203507395305
564,27.9741969853452
597,40.692402962258
630,31.9413273978883
663,28.4084108110228
664,5.272198572306767E-002
665,5.441442766161710E-002
666,4.866354933930129E-002
2,2, 1, 2, 0, 1, 0.00,60.00,Tuesday        
6,-1.21666666666667
7,81.7416666666667
199,15.6175093061659
200,16.2883462976646
233,0.366778862669367
234,1.49595553811106
235,4.983316122384978E-002
564,27.3340603417809
597,39.5836091966965
630,32.1784394572458
663,27.0315008150816
664,5.238147728803957E-002
665,5.557643550087588E-002
666,4.879641450712536E-002
2,2, 1, 2, 0, 2, 0.00,60.00,Tuesday        
6,-0.8
7,83.15
199,15.2584365360324
200,16.0952352909635
233,0.394061751208433
234,1.54557627305238
235,8.323660984073983E-002
564,27.9751107719969
597,40.4516132863419
630,34.2435442292476
663,26.2772759420068
664,5.264205337543038E-002
665,5.653860387956700E-002
666,4.999335309895164E-002
2,2, 1, 2, 0, 3, 0.00,60.00,Tuesday        
6,-0.683333333333333
7,85.0166666666667
199,14.9652832081829
200,15.9228161091069
233,0.362772704697663
234,1.49777167524184
235,5.560215341546315E-002
564,29.3976410557627
597,41.7404717502149
630,36.0626089824613
663,26.7522067714124
664,5.242866996272447E-002
665,5.622249609800559E-002
666,5.026969309828992E-002
2,2, 1, 2, 0, 4, 0.00,60.00,Tuesday        
6,-0.658333333333333
7,87.375
199,14.6376368606329
200,15.7377016366306
233,0.365351281569356
234,1.69073493395373
235,0.0
564,30.8590560257306
597,43.5898341976351
630,38.059526162572
663,27.6310620728811
664,5.263057318376221E-002
665,5.661745217382778E-002
666,5.058258918479025E-002
2,2, 1, 2, 0, 5, 0.00,60.00,Tuesday        
6,-0.7
7,89.
199,14.3179135187704
200,15.5125097634192
233,0.340540545649568
234,1.76823077537585
235,0.0
564,32.3227883452999
597,45.3244434142975
630,39.8976110987919
663,28.7950318052072
664,5.303553323640497E-002
665,5.696788623507507E-002
666,5.142218328663605E-002
2,2, 1, 2, 0, 6, 0.00,60.00,Tuesday        
6,-0.7
7,90.1666666666667
199,14.0968047567421
200,15.3276982684841
233,0.280329816162781
234,1.52121163088042
235,0.0
564,33.1488709231224
597,46.0140203748695
630,40.5133355970384
663,29.7455993411454
664,5.269806495229429E-002
665,5.654237145090977E-002
666,5.154795484234196E-002
2,2, 1, 2, 0, 7, 0.00,60.00,Tuesday        
6,-0.583333333333333
7,91.175
199,14.575556128701
200,15.6417443575741
233,0.305265654982861
234,1.60956071965902
235,0.0
564,31.6432614421893
597,45.9522503660843
630,38.9631584498139
663,28.8903410337054
664,5.249859523438957E-002
665,5.638749948804761E-002
666,5.120577262344611E-002
2,2, 1, 2, 0, 8, 0.00,60.00,Tuesday        
6,-0.558333333333333
7,91.1833333333333
199,14.6165049944666
200,15.6554893617068
233,0.519134624599709
234,1.75414466281187
235,0.121398069930279
564,32.0396812067554
597,45.8143110267386
630,55.9326495167046
663,29.1555301490389
664,5.297365601952501E-002
665,5.638540115466786E-002
666,5.098539667607119E-002
2,2, 1, 2, 0, 9, 0.00,60.00,Tuesday        
6,-0.95
7,91.9166666666667
199,14.3324812486393
200,15.1214465482804
233,0.335685768149894
234,1.27618820706759
235,4.347995098802194E-002
564,33.2885203244633
597,52.6409007109525
630,70.689311750842
663,34.2507337810728
664,5.298342167022296E-002
665,5.595734123019774E-002
666,5.042413428195743E-002
2,2, 1, 2, 0,10, 0.00,60.00,Tuesday        
6,-0.5
7,89.8166666666667
199,16.0934435937367
200,15.6755613729878
233,0.360559544502731
234,1.6389034508927
235,0.0
564,32.0094877591171
597,52.2085782010573
630,51.8033403871503
663,36.6477378020058
664,5.281761247078366E-002
665,5.626987732481125E-002
666,5.038640373699868E-002
2,2, 1, 2, 0,11, 0.00,60.00,Tuesday        
6,0.408333333333333
7,84.5166666666667
199,17.6858342763952
200,16.5053283675948
233,0.373176142982438
234,1.80671406101157
235,0.0
564,30.8975915937136
597,48.2177613911536
630,41.9632266443396
663,32.6561505567093
664,5.362332358111723E-002
665,5.706139982240391E-002
666,5.178256347828356E-002
2,2, 1, 2, 0,12, 0.00,60.00,Tuesday        
6,1.4
7,80.6416666666667
199,19.3465755151583
200,17.5822857164741
233,0.346757819632001
234,1.47457036523011
235,0.0
564,29.0200853324427
597,47.0947467089944
630,41.0840341172626
663,29.1574435625799
664,5.355637624698199E-002
665,5.656935542138714E-002
666,5.145739029948915E-002
2,2, 1, 2, 0,13, 0.00,60.00,Tuesday        
6,2.13333333333333
7,78.7833333333333
199,18.9113383243922
200,17.836049517531
233,0.498928682401885
234,1.66079753687924
235,0.175655507103792
564,29.712901576162
597,51.0180075744911
630,92.8067928972629
663,28.803574548779
664,5.366219161289128E-002
665,5.631286881816099E-002
666,5.054980001828819E-002
2,2, 1, 2, 0,14, 0.00,60.00,Tuesday        
6,2.70833333333333
7,75.575
199,19.8280604028142
200,18.1968288796625
233,0.344251353591235
234,1.44344525061371
235,6.610853522755146E-002
564,29.5187520268462
597,54.4182982641765
630,73.6566265237361
663,30.1074693486375
664,5.320442840687559E-002
665,5.617990945725162E-002
666,5.039968820635710E-002
2,2, 1, 2, 0,15, 0.00,60.00,Tuesday        
6,2.94166666666667
7,73.6416666666667
199,20.6143360912475
200,18.6054839994961
233,0.380069472985916
234,1.47990748178298
235,0.104889735700674
564,31.1748031309833
597,51.7787332333772
630,45.5384817213807
663,31.7852328526573
664,5.301661277282834E-002
665,5.618863757804859E-002
666,5.039565713416811E-002
2,2, 1, 2, 0,16, 0.00,60.00,Tuesday        
6,2.375
7,76.05
199,20.409669566808
200,18.4421797913965
233,0.544187781232787
234,1.17016165817875
235,0.348073457727666
564,31.7113563621724
597,50.1456627096572
630,38.4105805758955
663,31.3375035668864
664,5.307497209061021E-002
665,5.559437289928835E-002
666,5.057856319101939E-002
2,2, 1, 2, 0,17, 0.00,60.00,Tuesday        
6,1.65
7,78.5583333333333
199,18.6561272398433
200,17.1909087024159
233,0.647703320718272
234,0.938117050175305
235,0.547658622849279
564,33.8582259533665
597,49.2024366578432
630,36.318531145565
663,32.2182855938103
664,5.295134710673511E-002
665,5.446183101713965E-002
666,5.070169841057132E-002
2,2, 1, 2, 0,18, 0.00,60.00,Tuesday        
6,1.34166666666667
7,82.425
199,17.9967736262098
200,17.0817668911868
233,0.709104972719093
234,0.882386749149442
235,0.647459810362896
564,34.5441291613305
597,46.6177236468772
630,35.8159483426104
663,30.9181784121562
664,5.289153755593598E-002
665,5.376035118037443E-002
666,5.097041621890358E-002
2,2, 1, 2, 0,19, 0.00,60.00,Tuesday        
6,1.59166666666667
7,83.8666666666667
199,17.8145878863918
200,16.948985835544
233,0.848125115940589
234,1.78618206900058
235,0.64845257468391
564,34.5335100776752
597,49.5913808014022
630,86.0227915329338
663,31.2047335811644
664,5.366833603816677E-002
665,5.506841912571672E-002
666,5.147115134772386E-002
2,2, 1, 2, 0,20, 0.00,60.00,Tuesday        
6,1.625
7,84.1916666666667
199,17.4214816230345
200,16.8864655827566
233,0.597538145786881
234,1.8400198379797
235,0.250616785375016
564,33.6074368262631
597,53.4641741926833
630,53.3181415606411
663,34.3145817989387
664,5.378346767375158E-002
665,5.611273552918727E-002
666,5.182995429563274E-002
2,2, 1, 2, 0,21, 0.00,60.00,Tuesday        
6,1.675
7,82.8
199,17.6030904199542
200,16.8318628680638
233,0.395272394901027
234,1.97063547200729
235,2.383764852031872E-002
564,33.0307443837883
597,51.7172056400604
630,47.8373612640923
663,35.8741653398576
664,5.371929526840799E-002
665,5.704266398832361E-002
666,5.203896178073728E-002
2,2, 1, 2, 0,22, 0.00,60.00,Tuesday        
6,1.39166666666667
7,84.275
199,17.1819774934143
200,16.1176067657859
233,0.381069400217922
234,1.95410570956842
235,0.0
564,35.5649220551467
597,51.9021666654169
630,48.0477262357552
663,37.081719676706
664,5.385482923733918E-002
665,5.730455310672915E-002
666,5.232011286966764E-002
2,2, 1, 2, 0,23, 0.00,60.00,Tuesday        
6,0.983333333333333
7,87.45
199,16.23992308894
200,16.0054375678575
233,0.341814506138797
234,1.49595666825071
235,0.0
564,36.7664429181031
597,50.222488761017
630,42.2333363293101
663,36.0986796900308
664,5.356257653008707E-002
665,5.685117024519321E-002
666,5.185240745536714E-002
2,2, 1, 2, 0,24, 0.00,60.00,Tuesday        
6,0.725
7,89.25
199,15.7622030321355
200,15.9263401482101
233,0.277220226138381
234,1.13884481876286
235,0.0
564,35.7373760978102
597,50.1575637898681
630,41.1699559121106
663,34.968334041825
664,5.240005396023497E-002
665,5.557704690021479E-002
666,5.022360923599644E-002
2,3, 1, 3, 0, 1, 0.00,60.00,Wednesday      
6,0.541666666666667
7,91.05
199,15.4533985882675
200,15.8244882201526
233,0.221776066490405
234,0.893239966374209
235,0.0
564,35.4109770498473
597,49.5425790892948
630,41.2633622616421
663,34.3572052495815
664,5.112564802345800E-002
665,5.439171161861545E-002
666,4.861998732240685E-002
2,3, 1, 3, 0, 2, 0.00,60.00,Wednesday      
6,0.325
7,91.6833333333333
199,15.1954251253964
200,15.7282755369605
233,0.175786221870387
234,0.829764816537959
235,0.0
564,35.3698956412335
597,49.3510458634207
630,41.585337112506
663,34.2550457106253
664,4.978498201433831E-002
665,5.315614845804087E-002
666,4.630481154117976E-002
2,3, 1, 3, 0, 3, 0.00,60.00,Wednesday      
6,0.316666666666667
7,93.
199,14.9506601511823
200,15.6102805515482
233,0.197521635817377
234,0.781908030957896
235,0.0
564,35.6460636367805
597,49.0789643794113
630,41.8602688216114
663,34.2237885798528
664,4.866060492927834E-002
665,5.265423848898193E-002
666,4.482031617565296E-002
2,3, 1, 3, 0, 4, 0.00,60.00,Wednesday      
6,0.516666666666667
7,94.
199,14.5781068059273
200,15.4420456322359
233,0.415033771933893
234,0.76402884478591
235,0.16987378688686
564,36.8849290438345
597,49.0242725245206
630,42.9298042850066
663,34.6173758164936
664,4.976540758004527E-002
665,5.262189717282376E-002
666,4.438123339824517E-002
2,3, 1, 3, 0, 5, 0.00,60.00,Wednesday      
6,0.366666666666667
7,93.9416666666667
199,14.3483310455514
200,15.3689719334454
233,0.27846842985588
234,0.897835486818952
235,0.0
564,37.6277899423134
597,49.8970524804929
630,44.0995577338379
663,34.8712427189094
664,5.039326821949569E-002
665,5.356115919207754E-002
666,4.345821436381093E-002
2,3, 1, 3, 0, 6, 0.00,60.00,Wednesday      
6,-0.325
7,93.3166666666667
199,14.1071789990042
200,15.2719800236081
233,0.295710488646047
234,0.843639327245213
235,0.0
564,37.794126137859
597,49.4222974653151
630,43.637628405808
663,35.2347285788806
664,5.085219180777484E-002
665,5.386495348972576E-002
666,4.329826523193640E-002
2,3, 1, 3, 0, 7, 0.00,60.00,Wednesday      
6,-0.933333333333333
7,93.95
199,14.5887070612027
200,15.6659662841359
233,0.331671897387394
234,0.994986005840156
235,0.0
564,34.6369819750841
597,47.2519356937423
630,39.8583189185839
663,33.4222846592173
664,5.118724457896370E-002
665,5.419015287125042E-002
666,4.354195521692204E-002
2,3, 1, 3, 0, 8, 0.00,60.00,Wednesday      
6,-1.39166666666667
7,93.1833333333333
199,14.6772069128038
200,15.7241158972163
233,0.401729134572203
234,1.05272269322148
235,3.970647258589687E-002
564,33.2520190831985
597,48.8348787636074
630,55.110397462156
663,32.4879801465073
664,5.182834555390178E-002
665,5.425247224032586E-002
666,4.398446157048802E-002
2,3, 1, 3, 0, 9, 0.00,60.00,Wednesday      
6,-1.65833333333333
7,92.0416666666667
199,14.4503907602332
200,15.2380003798683
233,0.332063887278123
234,0.947637684186507
235,0.0
564,33.1935029872474
597,54.7837969225507
630,71.3430176493763
663,36.0541502887912
664,5.221449855640876E-002
665,5.419380627680914E-002
666,4.439127107575142E-002
2,3, 1, 3, 0,10, 0.00,60.00,Wednesday      
6,-1.23333333333333
7,90.0166666666667
199,16.3514767011011
200,15.8904295267233
233,0.33959692250845
234,0.975895808337967
235,0.0
564,31.0481269649186
597,54.5408070860818
630,48.1146016718556
663,37.49419471398
664,5.222994727998068E-002
665,5.475376519831093E-002
666,4.525887615215605E-002
2,3, 1, 3, 0,11, 0.00,60.00,Wednesday      
6,-0.783333333333333
7,86.325
199,18.5001012233678
200,17.2390256427412
233,0.358134626204291
234,1.01479193258472
235,0.0
564,28.9616890193428
597,48.9056068954577
630,38.9812172982079
663,33.525607111013
664,5.259264898782098E-002
665,5.503848099644713E-002
666,4.600638822044812E-002
2,3, 1, 3, 0,12, 0.00,60.00,Wednesday      
6,-0.466666666666667
7,85.05
199,18.9943232054814
200,17.6371424424173
233,0.37789528161385
234,0.982155308873226
235,0.0
564,28.3552971955464
597,43.832905297148
630,37.0759305666651
663,29.5518431724628
664,5.303809005717010E-002
665,5.512930808094340E-002
666,4.669602897663414E-002
2,3, 1, 3, 0,13, 0.00,60.00,Wednesday      
6,0.166666666666667
7,83.8416666666667
199,18.9885765856158
200,18.1831946815479
233,0.411962688898162
234,1.20327789800944
235,1.267609040042458E-002
564,27.7853649573914
597,45.6415033066239
630,92.7659660641478
663,27.7650257904128
664,5.352555933749557E-002
665,5.512013835219450E-002
666,4.648317844182136E-002
2,3, 1, 3, 0,14, 0.00,60.00,Wednesday      
6,0.558333333333333
7,79.5916666666667
199,20.2641469779777
200,18.8164841562719
233,0.365445246757214
234,0.999447640440755
235,0.0
564,27.1194790731371
597,51.3720556087392
630,75.8267647641105
663,28.0726391056186
664,5.325749030288340E-002
665,5.524491913463340E-002
666,4.662444549926848E-002
2,3, 1, 3, 0,15, 0.00,60.00,Wednesday      
6,0.483333333333333
7,79.225
199,21.3845659021671
200,19.5513169366019
233,0.411878096801734
234,1.03790440014583
235,0.0
564,27.8755156937627
597,51.3855390161978
630,44.1828662345295
663,29.3302603949309
664,5.346099251577086E-002
665,5.533617131301709E-002
666,4.706599162469105E-002
2,3, 1, 3, 0,16, 0.00,60.00,Wednesday      
6,-8.333333333333312E-003
7,81.0666666666667
199,21.0260452454565
200,19.3938012986531
233,0.398147884634625
234,1.15724818304715
235,0.0
564,28.3138555249205
597,48.1138777289346
630,35.4160387420326
663,29.2165770821719
664,5.375476855586303E-002
665,5.569361180013854E-002
666,4.773302825477265E-002
2,3, 1, 3, 0,17, 0.00,60.00,Wednesday      
6,-0.883333333333333
7,84.0833333333333
199,19.0394878185111
200,18.0938577600586
233,0.359755159714929
234,0.953693456239621
235,0.0
564,30.2173350395978
597,44.5738327254903
630,32.6091054048741
663,29.6802279823244
664,5.334758252029542E-002
665,5.534423602056476E-002
666,4.750232940665918E-002
2,3, 1, 3, 0,18, 0.00,60.00,Wednesday      
6,-1.475
7,86.9916666666667
199,18.3329221280313
200,17.8559612626822
233,0.358965996888731
234,0.741414016745677
235,6.347509315621876E-002
564,30.9226035940551
597,41.1927061569401
630,31.3720622712228
663,28.3909545989557
664,5.275641351065027E-002
665,5.441425405702291E-002
666,4.688873784858704E-002
2,3, 1, 3, 0,19, 0.00,60.00,Wednesday      
6,-2.24166666666667
7,88.1083333333333
199,17.925494959258
200,17.7697407952321
233,0.537057575727212
234,1.05803552567611
235,0.167943699942142
564,30.9471179771242
597,42.3784379991928
630,86.4510750537145
663,27.6280523717987
664,5.312162708317299E-002
665,5.439102376533918E-002
666,4.672693372860700E-002
2,3, 1, 3, 0,20, 0.00,60.00,Wednesday      
6,-2.875
7,89.45
199,17.6182004020059
200,17.7121094303325
233,0.376302539415115
234,0.892215508153105
235,5.871531999755757E-002
564,28.9305701942157
597,49.0662292143519
630,53.6466059511648
663,29.6536949423909
664,5.283306174794763E-002
665,5.394169903675272E-002
666,4.669254101223941E-002
2,3, 1, 3, 0,21, 0.00,60.00,Wednesday      
6,-3.29166666666667
7,91.1916666666667
199,17.6762001188838
200,17.674851737857
233,0.318072848594972
234,0.941250450725416
235,0.0
564,28.9547624299271
597,49.5228721216869
630,48.3573296673558
663,32.0705759233413
664,5.222605289463727E-002
665,5.443458044632533E-002
666,4.655114095430832E-002
2,3, 1, 3, 0,22, 0.00,60.00,Wednesday      
6,-3.5
7,91.9
199,17.2924336163408
200,16.9670225928902
233,0.409439919680081
234,0.798673130799482
235,9.075716998304655E-002
564,30.6823186854424
597,49.7668117370617
630,49.1023492095655
663,33.5298245457047
664,5.227136711793578E-002
665,5.442031510811246E-002
666,4.634595724349663E-002
2,3, 1, 3, 0,23, 0.00,60.00,Wednesday      
6,-2.975
7,92.4833333333333
199,16.3172117184039
200,16.8203552918651
233,0.404902343493149
234,0.795838397250798
235,8.753156213273232E-002
564,30.4040245040045
597,45.5963530032546
630,37.6548178815776
663,32.1195114320017
664,5.257762581835926E-002
665,5.413768520638765E-002
666,4.627948798784257E-002
2,3, 1, 3, 0,24, 0.00,60.00,Wednesday      
6,-2.425
7,90.625
199,15.7800251270762
200,16.6887682880134
233,0.389339425505163
234,0.738771721862285
235,9.150680079099194E-002
564,29.0568367468104
597,42.115005914381
630,32.9812271445612
663,30.0813229553155
664,5.208192364702006E-002
665,5.391889921841642E-002
666,4.605180143092415E-002
2,4, 1, 4, 0, 1, 0.00,60.00,Thursday       
6,-2.76666666666667
7,86.9
199,15.3850003092938
200,16.5729397216918
233,0.330858391413995
234,0.811082601177252
235,1.978891664117198E-002
564,28.25095538543
597,39.5961370956627
630,31.9504100320457
663,28.5113256111078
664,5.184333797142254E-002
665,5.378130313763197E-002
666,4.532114875431039E-002
2,4, 1, 4, 0, 2, 0.00,60.00,Thursday       
6,-3.8
7,85.925
199,14.9250797943408
200,16.3770734496875
233,0.432842607504661
234,0.853307692086263
235,9.029872596802491E-002
564,26.6045678465378
597,37.1843059035853
630,30.075301105114
663,27.1281896859628
664,5.226841841271813E-002
665,5.403791469308592E-002
666,4.538774486359707E-002
2,4, 1, 4, 0, 3, 0.00,60.00,Thursday       
6,-4.41666666666667
7,88.8083333333333
199,14.6508008463056
200,16.2302756329474
233,0.322981531753084
234,0.88367085943914
235,2.177871332995160E-002
564,25.3826064780818
597,34.8492810010672
630,28.823045163965
663,25.6009663659653
664,5.182262365948274E-002
665,5.415700325172228E-002
666,4.564313509501395E-002
2,4, 1, 4, 0, 4, 0.00,60.00,Thursday       
6,-4.26666666666667
7,92.4666666666667
199,14.2821426314629
200,16.0543214864384
233,0.409312123222531
234,0.744503367877598
235,7.923093913365453E-002
564,25.3395541329592
597,32.6337191807498
630,28.7783920166896
663,24.2148409255273
664,5.202901569569710E-002
665,5.387786293779653E-002
666,4.569813450498337E-002
2,4, 1, 4, 0, 5, 0.00,60.00,Thursday       
6,-4.91666666666667
7,92.8083333333333
199,13.9508557077088
200,15.8963237234612
233,0.417115850380802
234,0.748261746103517
235,9.168850677772696E-002
564,26.0803944508142
597,31.5901574216235
630,29.6691398218872
663,23.546605853067
664,5.233055270050733E-002
665,5.394984914094211E-002
666,4.562104766557795E-002
2,4, 1, 4, 0, 6, 0.00,60.00,Thursday       
6,-5.09166666666667
7,92.625
199,13.6893179655914
200,15.7396555606136
233,0.325496629441093
234,0.978619983122506
235,1.177066765195847E-002
564,25.4910503071221
597,31.3954628401752
630,29.0138680787763
663,23.17773873083
664,5.207627223420438E-002
665,5.430277215964802E-002
666,4.602235619902987E-002
2,4, 1, 4, 0, 7, 0.00,60.00,Thursday       
6,-4.45
7,93.2916666666667
199,14.2065729213519
200,16.0650055197554
233,0.29694568298107
234,1.12973371665931
235,0.0
564,23.9226227801204
597,32.1700236760552
630,27.9990451958487
663,21.6677155970718
664,5.171594199018634E-002
665,5.477209084708179E-002
666,4.654443375177594E-002
2,4, 1, 4, 0, 8, 0.00,60.00,Thursday       
6,-4.375
7,93.325
199,14.2832198475462
200,16.0944610369214
233,0.444368651495992
234,1.16770852562802
235,7.419171402477877E-002
564,24.3343334641029
597,33.9600612976797
630,47.0543024427975
663,21.3027732545891
664,5.180796084572751E-002
665,5.448320285624544E-002
666,4.643718309931987E-002