Program Version,EnergyPlus-Darwin-64 8.1.0.009, YMD=2016.06.14 17:58
1,5,Environment Title[],Latitude[deg],Longitude[deg],Time Zone[],Elevation[m]
2,6,Day of Simulation[],Month[],Day of Month[],DST Indicator[1=yes 0=no],Hour[],StartMinute[],EndMinute[],DayType
3,3,Cumulative Day of Simulation[],Month[],Day of Month[],DST Indicator[1=yes 0=no],DayType  ! When Daily Report Variables Requested
4,2,Cumulative Days of Simulation[],Month[]  ! When Monthly Report Variables Requested
5,1,Cumulative Days of Simulation[] ! When Run Period Report Variables Requested
6,1,Environment,Site Outdoor Air Drybulb Temperature [C] !Hourly
7,1,Environment,Site Outdoor Air Relative Humidity [%] !Hourly
258,1,BEDROOM1,Zone Operative Temperature [C] !Hourly
259,1,LIVING,Zone Operative Temperature [C] !Hourly
292,1,KITCHEN,AFN Zone Infiltration Air Change Rate [ach] !Hourly
293,1,BEDROOM1,AFN Zone Infiltration Air Change Rate [ach] !Hourly
294,1,LIVING,AFN Zone Infiltration Air Change Rate [ach] !Hourly
295,11,TOPHALL,Zone Air System Sensible Heating Energy [J] !RunPeriod [Value,Min,Month,Day,Hour,Minute,Max,Month,Day,Hour,Minute]
367,11,KITCHEN,Zone Air System Sensible Heating Energy [J] !RunPeriod [Value,Min,Month,Day,Hour,Minute,Max,Month,Day,Hour,Minute]
399,1,KITCHEN,Zone Air Relative Humidity [%] !Hourly
400,11,BEDROOM2,Zone Air System Sensible Heating Energy [J] !RunPeriod [Value,Min,Month,Day,Hour,Minute,Max,Month,Day,Hour,Minute]
432,11,BEDROOM1,Zone Air System Sensible Heating Energy [J] !RunPeriod [Value,Min,Month,Day,Hour,Minute,Max,Month,Day,Hour,Minute]
464,1,BEDROOM1,Zone Air Relative Humidity [%] !Hourly
465,11,BATH1,Zone Air System Sensible Heating Energy [J] !RunPeriod [Value,Min,Month,Day,Hour,Minute,Max,Month,Day,Hour,Minute]
497,1,BATH1,Zone Air Relative Humidity [%] !Hourly
498,11,STAIRCASE,Zone Air System Sensible Heating Energy [J] !RunPeriod [Value,Min,Month,Day,Hour,Minute,Max,Month,Day,Hour,Minute]
530,11,DINING,Zone Air System Sensible Heating Energy [J] !RunPeriod [Value,Min,Month,Day,Hour,Minute,Max,Month,Day,Hour,Minute]
626,11,HALL,Zone Air System Sensible Heating Energy [J] !RunPeriod [Value,Min,Month,Day,Hour,Minute,Max,Month,Day,Hour,Minute]
658,11,BEDROOM3,Zone Air System Sensible Heating Energy [J] !RunPeriod [Value,Min,Month,Day,Hour,Minute,Max,Month,Day,Hour,Minute]
690,11,LIVING,Zone Air System Sensible Heating Energy [J] !RunPeriod [Value,Min,Month,Day,Hour,Minute,Max,Month,Day,Hour,Minute]
722,1,LIVING,Zone Air Relative Humidity [%] !Hourly
723,1,KITCHEN,Zone Air Generic Air Contaminant Concentration [ppm] !Hourly
724,1,BEDROOM1,Zone Air Generic Air Contaminant Concentration [ppm] !Hourly
725,1,LIVING,Zone Air Generic Air Contaminant Concentration [ppm] !Hourly
End of Data Dictionary
1,4250290 - UK WG data WMO#=03534,  52.48,  -1.67,   0.00,  96.00
2,1, 1, 1, 0, 1, 0.00,60.00,Monday         
6,7.86666666666667
7,78.5
258,15.4373180546779
259,14.6454823199391
292,0.273869143445085
293,0.25329000280612
294,0.303192609379569
399,54.4343872351891
464,48.6153657189973
497,55.6319179327302
722,54.5084195883236
723,4.680215014191091E-002
724,3.712496013423860E-002
725,4.162858694322806E-002
2,1, 1, 1, 0, 2, 0.00,60.00,Monday         
6,7.93333333333333
7,82.4166666666667
258,15.4628608383215
259,14.537576350178
292,0.379045234165099
293,0.303720021403824
294,0.30130071861998
399,53.6749821889598
464,48.7719460618165
497,55.568633806137
722,53.5163757788715
723,4.556405405578271E-002
724,3.939482262124136E-002
725,4.342633927934122E-002
2,1, 1, 1, 0, 3, 0.00,60.00,Monday         
6,8.39166666666667
7,83.5
258,15.5077856151831
259,14.4781606297978
292,0.346417616318521
293,0.275493798806382
294,0.275661350407902
399,54.6404083769548
464,49.7675837814124
497,57.144120172309
722,54.3853870922251
723,4.502266456095160E-002
724,4.028087285632958E-002
725,4.305921356566331E-002
2,1, 1, 1, 0, 4, 0.00,60.00,Monday         
6,9.06666666666667
7,83.9166666666667
258,15.5611689019344
259,14.4351840266003
292,0.356179832936181
293,0.222203937295903
294,0.239961115021308
399,55.8987864223678
464,50.5146336125005
497,58.3221586733266
722,55.5078384549989
723,4.453686932077763E-002
724,4.021817702757387E-002
725,4.239054774818282E-002
2,1, 1, 1, 0, 5, 0.00,60.00,Monday         
6,8.58333333333333
7,90.6666666666667
258,15.6009970151681
259,14.3753863520826
292,0.38789687740979
293,0.197938442044358
294,0.234692824248036
399,58.5054023262562
464,51.7273109538305
497,60.8857553013115
722,57.6036566063009
723,4.487272684570880E-002
724,3.965077755406127E-002
725,4.194666827957564E-002
2,1, 1, 1, 0, 6, 0.00,60.00,Monday         
6,8.
7,88.75
258,15.6158032813179
259,14.289038286512
292,0.418410777276217
293,0.212000485999012
294,0.253456747401139
399,60.3759458306407
464,52.804976187805
497,61.9460891454202
722,59.4765347881136
723,4.568248421644713E-002
724,3.963296390729527E-002
725,4.229438856635073E-002
2,1, 1, 1, 0, 7, 0.00,60.00,Monday         
6,8.58333333333333
7,84.4166666666667
258,15.5843087915179
259,14.2342102093887
292,0.440104775476365
293,0.232873867427254
294,0.264212921634344
399,60.0390259225996
464,53.334899028805
497,60.9587972424907
722,59.5944841230437
723,4.637711472354553E-002
724,3.994554321929963E-002
725,4.278501999095758E-002
2,1, 1, 1, 0, 8, 0.00,60.00,Monday         
6,8.59166666666667
7,84.
258,15.3218581071505
259,14.1323141410271
292,0.790426018741201
293,0.248952920311509
294,0.36016536073892
399,77.4451787708125
464,54.7123015821128
497,62.7046332192018
722,59.9222019692975
723,4.738425971668599E-002
724,4.030489649285916E-002
725,4.444404774804367E-002
2,1, 1, 1, 0, 9, 0.00,60.00,Monday         
6,7.95
7,83.4166666666667
258,15.1958680247278
259,14.4414078308531
292,0.6434138732711
293,1.890193864410485E-002
294,0.14728309942172
399,63.0163096237891
464,56.9377908131517
497,60.620589810518
722,57.7436467084217
723,4.837458844770290E-002
724,3.964853069418781E-002
725,4.396487898238691E-002
2,1, 1, 1, 0,10, 0.00,60.00,Monday         
6,8.10833333333333
7,80.6666666666667
258,15.1606475886184
259,14.3189685331396
292,0.721224274569354
293,0.0
294,0.125377517607281
399,58.7327930427599
464,58.1461874643075
497,60.2749996639364
722,58.0818574139235
723,5.026916425250133E-002
724,4.003667204097360E-002
725,4.374525984832662E-002
2,1, 1, 1, 0,11, 0.00,60.00,Monday         
6,8.86666666666667
7,78.4166666666667
258,15.1069970529201
259,14.2148277898141
292,0.787413911436217
293,0.0
294,0.102203708343272
399,56.3307060520146
464,57.2448856605398
497,58.7297613896834
722,57.1711401578992
723,5.169466956794425E-002
724,4.141217255924772E-002
725,4.379100161713861E-002
2,1, 1, 1, 0,12, 0.00,60.00,Monday         
6,9.78333333333333
7,69.25
258,15.0980586898861
259,14.2555012174763
292,0.850265965246151
293,0.0
294,3.535601340479736E-002
399,55.3766897763655
464,55.3802960949046
497,57.0609438314352
722,56.6278185042005
723,5.221460454443665E-002
724,4.304119706789502E-002
725,4.330278490878173E-002
2,1, 1, 1, 0,13, 0.00,60.00,Monday         
6,9.73333333333333
7,65.3333333333333
258,15.2840896973431
259,14.6221100101645
292,1.0281821319345
293,0.0
294,0.0
399,51.9967887801045
464,52.5260710072273
497,52.534674669503
722,54.5039398297907
723,5.267806391575830E-002
724,4.471444453246535E-002
725,4.225337958667008E-002
2,1, 1, 1, 0,14, 0.00,60.00,Monday         
6,10.0416666666667
7,67.
258,15.446135537036
259,14.9147120917556
292,0.996295706864453
293,0.0
294,0.0
399,50.9070224118672
464,49.5032675632642
497,52.4184839048541
722,51.9846476377816
723,5.278788060122863E-002
724,4.553463237309994E-002
725,4.174203015831920E-002
2,1, 1, 1, 0,15, 0.00,60.00,Monday         
6,10.5583333333333
7,65.8333333333333
258,15.6623119061026
259,15.2312703478838
292,0.753745517289718
293,0.0
294,0.0
399,51.808713600674
464,47.8933116726275
497,54.1555804466564
722,50.1432026938676
723,5.145443121425822E-002
724,4.407297981553743E-002
725,4.159770084859021E-002
2,1, 1, 1, 0,16, 0.00,60.00,Monday         
6,10.4833333333333
7,65.
258,15.4841364796357
259,14.9191713923359
292,0.6501214901151
293,0.0
294,0.0
399,50.420334872217
464,47.984745716237
497,53.8056483095189
722,50.333185392001
723,4.985022178346874E-002
724,4.202550050725862E-002
725,4.123253970200601E-002
2,1, 1, 1, 0,17, 0.00,60.00,Monday         
6,10.4
7,62.0833333333333
258,15.2599363050003
259,14.5787982548682
292,0.547756375229316
293,0.268544189279688
294,0.290689018840378
399,49.4863804754737
464,48.100981934816
497,53.0024368644517
722,50.8057682075955
723,4.829668258896760E-002
724,4.304880118337001E-002
725,4.159758626580677E-002
2,1, 1, 1, 0,18, 0.00,60.00,Monday         
6,10.1083333333333
7,64.0833333333333
258,15.1403945996993
259,14.4945863163315
292,0.637598967689298
293,0.0
294,3.554262691314316E-003
399,49.5014750180698
464,47.575593867723
497,51.7974533033177
722,50.3394864895547
723,4.899169506709831E-002
724,4.312715103534454E-002
725,4.149112219816411E-002
2,1, 1, 1, 0,19, 0.00,60.00,Monday         
6,9.375
7,65.25
258,15.0191054508515
259,14.5586921020601
292,0.795334048039504
293,0.0
294,0.201866731362019
399,71.2787125220918
464,47.619915476392
497,52.2929187241049
722,49.7747042939515
723,4.940558564642969E-002
724,4.367229830635847E-002
725,4.302119660963256E-002
2,1, 1, 1, 0,20, 0.00,60.00,Monday         
6,8.88333333333333
7,66.3333333333333
258,14.9676091254453
259,14.953699367184
292,0.879665177491638
293,0.0
294,0.153706746016068
399,58.5790179965802
464,48.2774226589559
497,51.3130551363324
722,48.3448294954079
723,5.092926170695768E-002
724,4.235563518290646E-002
725,4.549845035708493E-002
2,1, 1, 1, 0,21, 0.00,60.00,Monday         
6,9.26666666666667
7,68.5833333333333
258,14.8999846770605
259,15.2013463294356
292,0.637090152035983
293,0.0
294,6.218224687873299E-002
399,58.5240404483997
464,49.4104261957611
497,52.3134591780537
722,49.7172147030976
723,5.169832684939728E-002
724,4.124526542602890E-002
725,4.574183401377264E-002
2,1, 1, 1, 0,22, 0.00,60.00,Monday         
6,9.25
7,70.1666666666667
258,14.8282962122019
259,15.3390456657854
292,0.580169000425639
293,0.0
294,2.322463468713143E-002
399,58.8265448545273
464,49.5220690986208
497,53.4643995480939
722,51.4973808497416
723,5.071389944302457E-002
724,4.170632800630803E-002
725,4.424419353872058E-002
2,1, 1, 1, 0,23, 0.00,60.00,Monday         
6,8.94166666666667
7,76.25
258,14.8612898806324
259,14.8592632160037
292,0.475581941527904
293,0.0
294,2.520214839285491E-002
399,55.3389466601893
464,49.4565623288187
497,53.9222440603999
722,54.4168574550349
723,4.954308932459956E-002
724,4.130504325005361E-002
725,4.234110441829152E-002
2,1, 1, 1, 0,24, 0.00,60.00,Monday         
6,8.43333333333333
7,81.1666666666667
258,15.0864231334748
259,14.6104361652436
292,0.375270442565308
293,0.0
294,4.726101371330468E-002
399,55.3016370424903
464,49.0677261208384
497,56.6007628502079
722,54.9190623669594
723,4.778255114942637E-002
724,3.875677245926394E-002
725,4.030301010919383E-002
2,2, 1, 2, 0, 1, 0.00,60.00,Tuesday        
6,7.575
7,92.5
258,15.2072879920268
259,14.4422277192486
292,0.268251059251054
293,7.482520147884336E-002
294,0.147785008753314
399,56.0102227775221
464,49.6557718045537
497,56.8482898192033
722,55.8959768113007
723,4.609734825038266E-002
724,3.631750790193752E-002
725,4.019571577089612E-002
2,2, 1, 2, 0, 2, 0.00,60.00,Tuesday        
6,5.91666666666667
7,100.
258,15.2816942001811
259,14.3460920924005
292,0.313401850759999
293,0.0
294,6.696062180172709E-002
399,57.903475870718
464,50.2830519543837
497,58.1894992759313
722,56.9137820995171
723,4.469065174910009E-002
724,3.397393330312048E-002
725,3.886057211677091E-002
2,2, 1, 2, 0, 3, 0.00,60.00,Tuesday        
6,4.35833333333333
7,100.
258,15.3137506047465
259,14.2259842921787
292,0.375395784682763
293,0.0
294,8.357065039666661E-002
399,57.7297854520887
464,50.9664623732781
497,58.2508474077666
722,57.3771847933902
723,4.484551851653506E-002
724,3.231163702665090E-002
725,3.809050752598788E-002
2,2, 1, 2, 0, 4, 0.00,60.00,Tuesday        
6,3.2
7,99.4166666666667
258,15.3254437786843
259,14.1009412652235
292,0.418382877261502
293,0.0
294,0.107283074017318
399,55.3902364819909
464,51.3909700222188
497,57.5170607865412
722,56.2894751410528
723,4.609403767502828E-002
724,3.208025478871253E-002
725,3.883235713614128E-002
2,2, 1, 2, 0, 5, 0.00,60.00,Tuesday        
6,2.81666666666667
7,99.5833333333333
258,15.3291906040607
259,13.9753777650486
292,0.39265866606406
293,7.509856106695765E-003
294,0.129896444877129
399,52.2514711644699
464,51.1293250339554
497,56.2843925637638
722,53.9712630742836
723,4.720664977227557E-002
724,3.237272868210186E-002
725,4.040459682597344E-002
2,2, 1, 2, 0, 6, 0.00,60.00,Tuesday        
6,2.95833333333333
7,100.
258,15.3299282267037
259,13.8728691788586
292,0.325439102761853
293,4.375603896506274E-002
294,0.171430795245942
399,50.6271441689379
464,50.2624306696688
497,55.5061996465544
722,52.1688357501099
723,4.701139435049323E-002
724,3.264557530411705E-002
725,4.155268622166226E-002
2,2, 1, 2, 0, 7, 0.00,60.00,Tuesday        
6,3.29166666666667
7,100.
258,15.2827506284853
259,13.7914105303734
292,0.255384485958683
293,4.884599737163205E-002
294,0.173035483399575
399,50.189743139501
464,49.5643051791874
497,54.9206886430035
722,51.3467271558976
723,4.617468222643970E-002
724,3.281085311160397E-002
725,4.211808085314703E-002
2,2, 1, 2, 0, 8, 0.00,60.00,Tuesday        
6,3.79166666666667
7,100.
258,14.9591357598248
259,13.6651039732107
292,0.497158069684427
293,0.127720621039281
294,0.271451105527836
399,70.8884967129685
464,50.3891990892327
497,57.2896106223015
722,51.6594021463546
723,4.500437110965055E-002
724,3.338199333401570E-002
725,4.330482445142226E-002
2,2, 1, 2, 0, 9, 0.00,60.00,Tuesday        
6,3.76666666666667
7,100.
258,14.8221626568936
259,13.9617872934317
292,0.302399888533322
293,4.123507068361012E-002
294,0.171842243532396
399,66.1293124990759
464,51.0847449842079
497,57.0379062859818
722,50.3036763801549
723,4.464637487829057E-002
724,3.257700335677622E-002
725,4.307492346233796E-002
2,2, 1, 2, 0,10, 0.00,60.00,Tuesday        
6,3.54166666666667
7,100.
258,14.7999932900492
259,13.8631621653037
292,0.325307933299188
293,1.760685176266935E-002
294,0.135405360840413
399,61.8592473792336
464,52.0423014894976
497,59.3316046748552
722,51.5106244115133
723,4.536475632707945E-002
724,3.201032321955553E-002
725,4.268189742779704E-002
2,2, 1, 2, 0,11, 0.00,60.00,Tuesday        
6,4.49166666666667
7,100.
258,14.9619620926027
259,14.0869678087743
292,0.314166354881875
293,0.0
294,0.108736047872445
399,57.0969098246952
464,52.1188241714903
497,58.7385185780516
722,51.0783437279345
723,4.589528284435614E-002
724,3.147195239284316E-002
725,4.192100653459088E-002
2,2, 1, 2, 0,12, 0.00,60.00,Tuesday        
6,5.375
7,100.
258,15.1502396006286
259,14.3899729941937
292,0.273155018912689
293,0.0
294,9.655880978993193E-002
399,56.1337639814248
464,51.4539483797446
497,58.1056800585049
722,51.3591836862828
723,4.532520525234234E-002
724,3.084482463636490E-002
725,4.084479670283327E-002
2,2, 1, 2, 0,13, 0.00,60.00,Tuesday        
6,6.14166666666667
7,98.8333333333333
258,15.2447573973777
259,14.5221411242117
292,0.2338367325968
293,6.960932238160955E-004
294,8.995754707093954E-002
399,56.7112669105447
464,50.9164799024992
497,57.634959076744
722,52.5157549690716
723,4.435588406964561E-002
724,3.017815991750654E-002
725,3.982764833143358E-002
2,2, 1, 2, 0,14, 0.00,60.00,Tuesday        
6,6.36666666666667
7,99.1666666666667
258,15.0846066498378
259,14.2493693734479
292,0.232606751481085
293,0.0
294,8.526526777372377E-002
399,58.0907838376261
464,51.2560691482537
497,57.6475444171454
722,54.8097998467348
723,4.324164548027733E-002
724,2.927641984713450E-002
725,3.878562896008600E-002
2,2, 1, 2, 0,15, 0.00,60.00,Tuesday        
6,6.49166666666667
7,100.
258,14.9370180754113
259,14.0256366494818
292,0.223572064430597
293,2.194267147644062E-002
294,0.118709330876562
399,59.5148981547369
464,51.9514101143364
497,57.9489058526073
722,57.0459167634378
723,4.275292699995797E-002
724,2.860153384648706E-002
725,3.848346292736111E-002
2,2, 1, 2, 0,16, 0.00,60.00,Tuesday        
6,6.525
7,100.
258,14.8381918453295
259,13.9109749876107
292,0.271086178933626
293,0.0
294,8.879669542512091E-002
399,59.1105020780403
464,52.6304692603392
497,58.8395296822722
722,58.7534991901429
723,4.290698752080366E-002
724,2.775683599374334E-002
725,3.833315716066935E-002
2,2, 1, 2, 0,17, 0.00,60.00,Tuesday        
6,6.34166666666667
7,100.
258,14.7348843792289
259,13.78916508501
292,0.291527237286718
293,0.0
294,9.817929855966773E-002
399,59.3084729564749
464,53.4821791852681
497,59.8683429806153
722,60.181463062463
723,4.380063186396285E-002
724,2.705018191603792E-002
725,3.849492706205989E-002
2,2, 1, 2, 0,18, 0.00,60.00,Tuesday        
6,5.54166666666667
7,100.
258,14.6378195507722
259,13.6987140786134
292,0.284952012957537
293,0.0
294,0.113115865543654
399,60.9304628961474
464,54.4293217922087
497,60.5348843093152
722,61.1971163822338
723,4.462415584657107E-002
724,2.702570708723589E-002
725,3.927287400361794E-002
2,2, 1, 2, 0,19, 0.00,60.00,Tuesday        
6,4.59166666666667
7,100.
258,14.4921045363198
259,13.7508412449335
292,0.508047193030735
293,0.104047753573622
294,0.269904913575721
399,82.584653779786
464,55.1835930613151
497,61.1998757364115
722,60.0459948333172
723,4.422883527127793E-002
724,2.808480156167656E-002
725,4.162684296006682E-002
2,2, 1, 2, 0,20, 0.00,60.00,Tuesday        
6,5.23333333333333
7,100.
258,14.4280401515564
259,14.2043762351268
292,0.280177611225946
293,5.162007074801101E-002
294,0.192313838442892
399,71.5819581395793
464,55.800270877341
497,61.0854880942292
722,57.7684123813192
723,4.361526750298036E-002
724,2.834457380525274E-002
725,4.271165974197338E-002
2,2, 1, 2, 0,21, 0.00,60.00,Tuesday        
6,5.08333333333333
7,100.
258,14.372482118972
259,14.4485303120963
292,0.216977415411147
293,2.727165864907808E-002
294,0.13521292266673
399,73.7086040036177
464,57.4704201048906
497,65.2758243473379
722,59.0628496062332
723,4.350175898022596E-002
724,2.831318815014760E-002
725,4.228854006453710E-002
2,2, 1, 2, 0,22, 0.00,60.00,Tuesday        
6,4.61666666666667
7,100.
258,14.3188759218038
259,14.5509356232145
292,0.220807007481042
293,1.349492550870741E-002
294,0.112399605258066
399,74.2601332838939
464,58.8912050416554
497,67.4084832910453
722,60.0708637771596
723,4.342322169634333E-002
724,2.837215467478834E-002
725,4.164910765391940E-002
2,2, 1, 2, 0,23, 0.00,60.00,Tuesday        
6,4.11666666666667
7,100.
258,14.3442019198522
259,14.0248511395501
292,0.230729341745559
293,4.428347753156054E-002
294,0.164545802792335
399,67.6457805136417
464,59.6426666286461
497,66.7224490330302
722,62.4731823497235
723,4.361360361342173E-002
724,2.847464163745130E-002
725,4.143603812860750E-002
2,2, 1, 2, 0,24, 0.00,60.00,Tuesday        
6,4.51666666666667
7,100.
258,14.4814643020603
259,13.7074734963886
292,0.16897930015207
293,0.248803331528035
294,0.284281050811849
399,62.4567936481742
464,58.287961733381
497,66.6970426600677
722,60.4746235377509
723,4.306811606104628E-002
724,3.088718113376950E-002
725,4.261131722033395E-002
2,3, 1, 3, 0, 1, 0.00,60.00,Wednesday      
6,5.91666666666667
7,100.
258,14.5454398923621
259,13.5742989281484
292,0.358690512527339
293,0.410522587048629
294,0.372929335737682
399,61.0685132383553
464,57.3800926092356
497,65.1321114034708
722,59.9451574196861
723,4.192843060127375E-002
724,3.594599893818096E-002
725,4.306622075220520E-002
2,3, 1, 3, 0, 2, 0.00,60.00,Wednesday      
6,6.61666666666667
7,100.
258,14.5452332719794
259,13.468434245827
292,0.256280972994604
293,0.654936783911345
294,0.529174796978127
399,61.5415894948357
464,57.9959600630857
497,64.6116204208781
722,61.3282162390101
723,4.269125611567937E-002
724,4.156495530745479E-002
725,4.424994272711705E-002
2,3, 1, 3, 0, 3, 0.00,60.00,Wednesday      
6,6.81666666666667
7,100.
258,14.4198956192717
259,13.3059708659516
292,0.0
293,0.964490487511407
294,0.816233004290876
399,61.9299834231539
464,59.7197449303083
497,64.4299707720594
722,63.798880147765
723,3.904648738580162E-002
724,4.885166085477504E-002
725,4.691062683197506E-002
2,3, 1, 3, 0, 4, 0.00,60.00,Wednesday      
6,7.89166666666667
7,100.
258,14.3963448326239
259,13.1600570512647
292,0.260951312863423
293,0.948710748207225
294,0.927932963870199
399,64.2851550984166
464,61.587615392563
497,64.951365632865
722,67.2077205383344
723,4.238822098979550E-002
724,5.255814003352059E-002
725,5.118531442152078E-002
2,3, 1, 3, 0, 5, 0.00,60.00,Wednesday      
6,7.55
7,100.
258,14.5081633991702
259,13.0092402888308
292,0.793862936044381
293,0.378955864859841
294,0.738073531007326
399,70.5233211208481
464,63.037616528534
497,66.5024794192644
722,71.8730973761604
723,5.217429582416785E-002
724,4.991328879019399E-002
725,5.476914062912788E-002
2,3, 1, 3, 0, 6, 0.00,60.00,Wednesday      
6,6.91666666666667
7,100.
258,14.5867774393831
259,12.8956157538697
292,1.34060768949202
293,0.0
294,0.38938955206266
399,69.5667809142157
464,62.4584127851191
497,69.3692034685463
722,69.2914924335186
723,5.645002291821518E-002
724,4.788541628678410E-002
725,5.518947121412566E-002
2,3, 1, 3, 0, 7, 0.00,60.00,Wednesday      
6,7.23333333333333
7,100.
258,14.5432106494864
259,12.9264739595777
292,1.35626563261953
293,0.0
294,0.106299211236904
399,69.7580749333328
464,62.0433737953715
497,69.8005487715713
722,68.1216709527641
723,5.668300734086857E-002
724,4.917198312530823E-002
725,5.352745291958669E-002
2,3, 1, 3, 0, 8, 0.00,60.00,Wednesday      
6,7.34166666666667
7,100.
258,14.145560124264
259,12.918882309718
292,1.10967123773495
293,0.0
294,0.103732817007418
399,84.2810468109856
464,64.1125703957535
497,71.3800909442304
722,68.9200295246302
723,5.520977155275109E-002
724,5.085554473385364E-002
725,5.187207742804118E-002
2,3, 1, 3, 0, 9, 0.00,60.00,Wednesday      
6,7.18333333333333
7,100.
258,13.9120799653167
259,13.0444177791678
292,1.41503202905457
293,0.695916562553154
294,0.717680488093672
399,73.4053294150962
464,65.2388825571192
497,69.9443646542299
722,68.4575601056859
723,5.508093999945868E-002
724,5.298612853044882E-002
725,5.312391672776066E-002
2,3, 1, 3, 0,10, 0.00,60.00,Wednesday      
6,8.325
7,100.
258,13.9440437086416
259,13.1025450207564
292,1.75683745502323
293,0.0
294,0.0
399,72.7111226751196
464,65.3563042339561
497,75.7855719928731
722,69.395577957769
723,5.544757751536886E-002
724,5.236539237112605E-002
725,5.158006480662541E-002
2,3, 1, 3, 0,11, 0.00,60.00,Wednesday      
6,8.38333333333333
7,100.
258,13.9338139246788
259,13.0505487395692
292,1.79773254434384
293,0.0
294,0.0
399,75.9064471284512
464,68.0910111588704
497,79.5195345588267
722,71.5847408325515
723,5.590218129130948E-002
724,5.214476566635495E-002
725,5.124514537293137E-002
2,3, 1, 3, 0,12, 0.00,60.00,Wednesday      
6,8.90833333333333
7,100.
258,13.9164110152384
259,13.0773157281453
292,1.93274524189742
293,0.0
294,0.0
399,75.9969630095516
464,69.3511612542452
497,80.0177875371525
722,73.2783260195923
723,5.608233150002961E-002
724,5.270433872813798E-002
725,5.149077053522397E-002
2,3, 1, 3, 0,13, 0.00,60.00,Wednesday      
6,9.40833333333333
7,100.
258,14.0527510784549
259,13.3857014314738
292,2.06495211010876
293,0.0
294,0.0
399,80.2159401535446
464,71.0834353397255
497,84.2214395231573
722,73.769187089345
723,5.643340866403288E-002
724,5.336891577998301E-002
725,5.043109840056254E-002
2,3, 1, 3, 0,14, 0.00,60.00,Wednesday      
6,9.60833333333333
7,100.
258,13.9489725906244
259,13.2773924534709
292,1.89173531157513
293,0.0
294,0.0
399,80.9912095482482
464,73.4479582287755
497,84.2244076077326
722,76.0613994071049
723,5.607631464195407E-002
724,5.331300792221105E-002
725,4.856566361215352E-002
2,3, 1, 3, 0,15, 0.00,60.00,Wednesday      
6,9.43333333333333
7,98.8333333333333
258,13.8386410214034
259,13.1303784637874
292,1.57994722874288
293,0.0
294,0.0
399,81.7767035730994
464,74.8457778871979
497,84.2420842773081
722,77.9814357940563
723,5.543942802556049E-002
724,5.212749889258190E-002
725,4.710897834182368E-002
2,3, 1, 3, 0,16, 0.00,60.00,Wednesday      
6,9.625
7,99.1666666666667
258,13.7694145225415
259,13.0588461346536
292,1.17996495642231
293,0.0
294,0.0
399,78.1410681422208
464,74.96376651915
497,82.6772235401215
722,78.6868921618416
723,5.461754162447637E-002
724,5.050517756875055E-002
725,4.579989014714988E-002
2,3, 1, 3, 0,17, 0.00,60.00,Wednesday      
6,9.94166666666667
7,100.
258,13.6991745233161
259,12.9813059724918
292,1.16541402449292
293,0.0
294,3.988159487929917E-002
399,79.3880498990642
464,75.4508727361007
497,85.6299314893093
722,79.6414828851193
723,5.398190344398391E-002
724,4.900352513910380E-002
725,4.452223266188315E-002
2,3, 1, 3, 0,18, 0.00,60.00,Wednesday      
6,9.375
7,100.
258,13.6079299726744
259,12.8982916637059
292,1.54473214339598
293,0.0
294,0.109916613541646
399,81.9834359548589
464,76.9275489583523
497,85.1715762262476
722,81.2965728703848
723,5.541901773138622E-002
724,4.928748451126150E-002
725,4.627028522568374E-002
2,3, 1, 3, 0,19, 0.00,60.00,Wednesday      
6,9.46666666666667
7,100.
258,13.523497359061
259,12.9988698994774
292,2.22463954494714
293,0.0
294,0.305401005270165
399,96.3195203089555
464,77.2810513249009
497,84.720217603396
722,79.8761485758386
723,5.627094216104678E-002
724,5.051746707570461E-002
725,4.940865302823988E-002
2,3, 1, 3, 0,20, 0.00,60.00,Wednesday      
6,8.86666666666667
7,100.
258,13.4530366181255
259,13.4380768686404
292,1.76888598554398
293,7.445914013723241E-002
294,0.331243487518539
399,84.2559045735415
464,79.8782017074344
497,82.3359462915278
722,77.057511172115
723,5.629367992432638E-002
724,5.156805968361405E-002
725,5.124962055971923E-002
2,3, 1, 3, 0,21, 0.00,60.00,Wednesday      
6,7.20833333333333
7,100.
258,13.3017543238905
259,13.5853709838577
292,0.97514885225299
293,0.78431581960294
294,0.688966083341267
399,80.4100924332278
464,77.7823748930955
497,78.7185780275937
722,74.2956150985786
723,5.520403303702030E-002
724,5.172838167775006E-002
725,5.149244358416918E-002
2,3, 1, 3, 0,22, 0.00,60.00,Wednesday      
6,7.025
7,100.
258,13.1531892854056
259,13.6840823412276
292,0.23470529811093
293,0.919263367026004
294,0.704577433840435
399,79.9065024678134
464,72.6074961996037
497,75.8338985545875
722,71.2246576467114
723,5.130607051151768E-002
724,5.169673167077202E-002
725,5.057929305658548E-002
2,3, 1, 3, 0,23, 0.00,60.00,Wednesday      
6,7.925
7,100.
258,13.1498072901225
259,13.212035903389
292,0.0
293,0.791735024637653
294,0.653246699649695
399,76.8796750557375
464,70.6471939910921
497,74.2233635358339
722,73.9026124101232
723,4.602916897269548E-002
724,5.201342884848757E-002
725,4.951879084721081E-002
2,3, 1, 3, 0,24, 0.00,60.00,Wednesday      
6,8.00833333333333
7,100.
258,13.3898791966834
259,12.9957963265315
292,3.059206513750277E-002
293,0.47871087750013
294,0.435192094408422
399,75.6809755782247
464,69.7579869513511
497,75.5759842874822
722,74.7360080585086
723,4.184381281856586E-002
724,5.065083750269814E-002
725,4.794577483767597E-002
2,4, 1, 4, 0, 1, 0.00,60.00,Thursday       
6,7.50833333333333
7,100.
258,13.5896854308276
259,12.9020159831744
292,0.152438974223163
293,0.176217721475103
294,0.232568355991906
399,74.8231342569053
464,68.9971559257309
497,76.0609157520468
722,74.3528341700285
723,4.074906558022805E-002
724,4.601394596198501E-002
725,4.590436099309923E-002
2,4, 1, 4, 0, 2, 0.00,60.00,Thursday       
6,6.95
7,100.
258,13.7164934247399
259,12.8393794894258
292,0.166489692147147
293,5.418616228122627E-002
294,0.158066891013982
399,73.5077124374019
464,68.7483707240564
497,76.4367360235592
722,73.4146618294919
723,4.065008392455619E-002
724,4.023003478528834E-002
725,4.350408674922096E-002
2,4, 1, 4, 0, 3, 0.00,60.00,Thursday       
6,6.23333333333333
7,100.
258,13.7936667503149
259,12.77123416986
292,0.173869111464279
293,4.937535570503704E-002
294,0.15381493295855
399,71.7986017911316
464,68.5256173309904
497,76.5180763055406
722,72.1302886222937
723,4.055686482186788E-002
724,3.592778156725040E-002
725,4.189404593244517E-002
2,4, 1, 4, 0, 4, 0.00,60.00,Thursday       
6,6.36666666666667
7,100.
258,13.8568528461499
259,12.7203823428554
292,0.166320650774901
293,4.238858742774434E-002
294,0.137488858197955
399,69.7981864213089
464,67.9834488401303
497,76.1754690410885
722,70.4637558367716
723,4.052710823836561E-002
724,3.306621249828084E-002
725,4.086944700353304E-002
2,4, 1, 4, 0, 5, 0.00,60.00,Thursday       
6,6.525
7,100.
258,13.9104700059615
259,12.6764150734035
292,0.15992514833699
293,5.302850999030212E-002
294,0.150311532086531
399,68.748539110896
464,67.3367567046683
497,75.5238278577005
722,69.6379896579569
723,4.010061357825918E-002
724,3.111623941218147E-002
725,3.994055368194565E-002
2,4, 1, 4, 0, 6, 0.00,60.00,Thursday       
6,7.1
7,100.
258,13.9507394879135
259,12.6329552592254
292,0.136562994099504
293,0.123891951303978
294,0.18380198283214
399,68.3313173718038
464,66.6256086889144
497,74.6911137067244
722,69.3500632199039
723,3.959422714348052E-002
724,3.055505379987078E-002
725,3.983857808873637E-002
2,4, 1, 4, 0, 7, 0.00,60.00,Thursday       
6,6.43333333333333
7,100.
258,13.9174793248973
259,12.5728182858881
292,0.139229342820035
293,0.195390424481
294,0.237207122292226
399,68.7129415128288
464,66.4123725688524
497,73.3775361805072
722,69.8176447126711
723,3.879158542895205E-002
724,3.145156076596348E-002
725,4.016046988853968E-002
2,4, 1, 4, 0, 8, 0.00,60.00,Thursday       
6,5.89166666666667
7,100.
258,13.5882777287884
259,12.4466341755696
292,0.409150114462498
293,0.299242465681819
294,0.363262789318473
399,88.2160431873685
464,66.9759303888483
497,74.5117099523549
722,69.5301615791322
723,4.017178881835128E-002
724,3.421740063849891E-002
725,4.217376671736919E-002
2,4, 1, 4, 0, 9, 0.00,60.00,Thursday       
6,7.15
7,100.
258,13.4781272777972
259,12.7925903088651
292,0.128312419329457
293,0.245555774346065
294,0.264583611150571
399,75.1799161832968
464,66.5881768037422
497,73.2998725529827
722,66.434804746337
723,3.934729584623364E-002
724,3.506885910730535E-002