Program Version,EnergyPlus-Darwin-64 8.1.0.009, YMD=2016.07.06 13:23
1,5,Environment Title[],Latitude[deg],Longitude[deg],Time Zone[],Elevation[m]
2,6,Day of Simulation[],Month[],Day of Month[],DST Indicator[1=yes 0=no],Hour[],StartMinute[],EndMinute[],DayType
3,3,Cumulative Day of Simulation[],Month[],Day of Month[],DST Indicator[1=yes 0=no],DayType  ! When Daily Report Variables Requested
4,2,Cumulative Days of Simulation[],Month[]  ! When Monthly Report Variables Requested
5,1,Cumulative Days of Simulation[] ! When Run Period Report Variables Requested
6,1,Environment,Site Outdoor Air Drybulb Temperature [C] !Hourly
7,1,Environment,Site Outdoor Air Relative Humidity [%] !Hourly
279,1,KITCHEN_L1,Surface Inside Face Temperature [C] !Hourly
280,1,KITCHEN_L2,Surface Inside Face Temperature [C] !Hourly
281,1,KITCHEN_L3,Surface Inside Face Temperature [C] !Hourly
282,1,KITCHEN_L4,Surface Inside Face Temperature [C] !Hourly
283,1,KITCHEN,Zone Mean Air Temperature [C] !Hourly
284,1,KITCHEN,Zone Operative Temperature [C] !Hourly
645,1,KITCHEN,Zone Air Relative Humidity [%] !Hourly
End of Data Dictionary
1,4250290 - UK WG data WMO#=03534,  52.48,  -1.67,   0.00,  96.00
2,1, 1, 1, 0, 1, 0.00,60.00,Monday         
6,7.86666666666667
7,78.5
279,12.1665889861374
280,12.167319220132
281,12.8687460733943
282,12.9057076263187
283,12.5912017218709
284,12.6400800815481
645,95.3177290428081
2,1, 1, 1, 0, 2, 0.00,60.00,Monday         
6,7.93333333333333
7,82.4166666666667
279,11.8406323598473
280,11.8422390737074
281,12.596148236627
282,12.6388389716859
283,12.3040633654835
284,12.3488398424745
645,95.0173030092486
2,1, 1, 1, 0, 3, 0.00,60.00,Monday         
6,8.39166666666667
7,83.5
279,11.5473362949649
280,11.5502420381981
281,12.3379800003542
282,12.3867223370794
283,12.0373163075682
284,12.0794716847411
645,95.2175178163737
2,1, 1, 1, 0, 4, 0.00,60.00,Monday         
6,9.06666666666667
7,83.9166666666667
279,11.3256895227212
280,11.3298717086061
281,12.1051690549704
282,12.1600334251524
283,11.8155081556632
284,11.8533010768405
645,95.4002658455574
2,1, 1, 1, 0, 5, 0.00,60.00,Monday         
6,8.58333333333333
7,90.6666666666667
279,11.1839139845158
280,11.1879633241093
281,11.905038735989
282,11.965510436791
283,11.6376582854438
284,11.670292734994
645,95.4295627404102
2,1, 1, 1, 0, 6, 0.00,60.00,Monday         
6,8.
7,88.75
279,11.0571061040902
280,11.0604798319373
281,11.7263027898936
282,11.7913766809362
283,11.4772798382884
284,11.506369090325
645,95.3790191353784
2,1, 1, 1, 0, 7, 0.00,60.00,Monday         
6,8.58333333333333
7,84.4166666666667
279,11.2099631346483
280,11.2140466680888
281,11.8625163225027
282,11.9316354928431
283,12.3014084230105
284,11.96548713083
645,89.5432647819188
2,1, 1, 1, 0, 8, 0.00,60.00,Monday         
6,8.59166666666667
7,84.
279,14.5547909326867
280,14.5766636641362
281,15.0835730171063
282,15.1496829318394
283,17.6210158224865
284,16.5695878012151
645,96.9823791091087
2,1, 1, 1, 0, 9, 0.00,60.00,Monday         
6,7.95
7,83.4166666666667
279,12.7586882430801
280,12.7612264854821
281,13.4040283973869
282,13.4695728128908
283,13.3007934005236
284,13.3842955450786
645,96.7567407024534
2,1, 1, 1, 0,10, 0.00,60.00,Monday         
6,8.10833333333333
7,80.6666666666667
279,11.9695652197378
280,11.976859542676
281,12.6670543273041
282,12.7363001063884
283,12.435768932391
284,12.4949813216943
645,98.921524553001
2,1, 1, 1, 0,11, 0.00,60.00,Monday         
6,8.86666666666667
7,78.4166666666667
279,11.6130111618899
280,11.6251655496687
281,12.3240207030562
282,12.3950072112603
283,12.0794960068005
284,12.1266701973405
645,97.4636887311351
2,1, 1, 1, 0,12, 0.00,60.00,Monday         
6,9.78333333333333
7,69.25
279,11.4324643711511
280,11.4523789820801
281,12.1031907435403
282,12.173418014396
283,11.8797192465217
284,11.9248761248823
645,96.0798048087503
2,1, 1, 1, 0,13, 0.00,60.00,Monday         
6,9.73333333333333
7,65.3333333333333
279,11.3947877086838
280,11.4251513870547
281,11.9725171911158
282,12.0400769050429
283,11.7935496603737
284,11.8369048275219
645,94.5204227908389
2,1, 1, 1, 0,14, 0.00,60.00,Monday         
6,10.0416666666667
7,67.
279,11.4140176122367
280,11.446998966825
281,11.8817710653418
282,11.9429482020417
283,11.7530954807204
284,11.7873390576017
645,92.997811177244
2,1, 1, 1, 0,15, 0.00,60.00,Monday         
6,10.5583333333333
7,65.8333333333333
279,11.4298029423771
280,11.4606345749896
281,11.8093371759822
282,11.8615816184621
283,11.718520061585
284,11.7427386363705
645,91.8509414800868
2,1, 1, 1, 0,16, 0.00,60.00,Monday         
6,10.4833333333333
7,65.
279,12.0299841422839
280,12.051189304236
281,12.2948906158274
282,12.337653767329
283,12.8766930208531
284,12.6033098239817
645,83.9104846391331
2,1, 1, 1, 0,17, 0.00,60.00,Monday         
6,10.4
7,62.0833333333333
279,12.5495507003056
280,12.5622149152696
281,12.7534486692682
282,12.7878287661169
283,13.3960417670888
284,13.1192656950972
645,79.8278893831871
2,1, 1, 1, 0,18, 0.00,60.00,Monday         
6,10.1083333333333
7,64.0833333333333
279,12.547760187065
280,12.5535141920208
281,12.7475962197848
282,12.779833326779
283,13.4462116376475
284,13.0833382658791
645,78.1545675915029
2,1, 1, 1, 0,19, 0.00,60.00,Monday         
6,9.375
7,65.25
279,15.5993857948522
280,15.6039665429838
281,15.706847402733
282,15.7328891065937
283,18.6025431779147
284,17.4013455301073
645,98.4114926126765
2,1, 1, 1, 0,20, 0.00,60.00,Monday         
6,8.88333333333333
7,66.3333333333333
279,13.9785655233802
280,13.974593892023
281,14.2851598348697
282,14.307176954221
283,14.7066928452374
284,14.5599836346622
645,86.6798548116297
2,1, 1, 1, 0,21, 0.00,60.00,Monday         
6,9.26666666666667
7,68.5833333333333
279,14.3729766175628
280,14.3689646948225
281,14.7716850379838
282,14.7940024705096
283,16.3323877295893
284,15.5721658224817
645,93.1602089778648
2,1, 1, 1, 0,22, 0.00,60.00,Monday         
6,9.25
7,70.1666666666667
279,13.7287612260068
280,13.7234630142309
281,14.2660470143583
282,14.2890425778349
283,14.21218490366
284,14.2250491554374
645,99.2882326275032
2,1, 1, 1, 0,23, 0.00,60.00,Monday         
6,8.94166666666667
7,76.25
279,12.8920865573539
280,12.8921708591641
281,13.512487156438
282,13.5374216446587
283,13.2850486149231
284,13.3487932414672
645,98.2698821377631
2,1, 1, 1, 0,24, 0.00,60.00,Monday         
6,8.43333333333333
7,81.1666666666667
279,12.4927180756058
280,12.4933067398054
281,13.1512861627125
282,13.1817032077558
283,12.8936236913658
284,12.9469634075846
645,96.5851828671274
2,2, 1, 2, 0, 1, 0.00,60.00,Tuesday        
6,7.575
7,92.5
279,12.156529110967
280,12.1570341716302
281,12.8555801904189
282,12.8916889884024
283,12.5793304847782
284,12.6273040836261
645,95.7969865873733
2,2, 1, 2, 0, 2, 0.00,60.00,Tuesday        
6,5.91666666666667
7,100.
279,11.7999763477563
280,11.7997264125012
281,12.5674462510142
282,12.609328734094
283,12.2488879853417
284,12.3004515395988
645,96.3556145330148
2,2, 1, 2, 0, 3, 0.00,60.00,Tuesday        
6,4.35833333333333
7,100.
279,11.3608595660281
280,11.3602020790255
281,12.2545181519713
282,12.3029112774309
283,11.8695302121453
284,11.9298987203313
645,97.3164147719896
2,2, 1, 2, 0, 4, 0.00,60.00,Tuesday        
6,3.2
7,99.4166666666667
279,10.8230593072454
280,10.822808582544
281,11.9026064872977
282,11.9591365519963
283,11.4296607461012
284,11.5016485827243
645,98.4921428044236
2,2, 1, 2, 0, 5, 0.00,60.00,Tuesday        
6,2.81666666666667
7,99.5833333333333
279,10.2353789110541
280,10.2363348354554
281,11.5134224194095
282,11.5803516462362
283,10.955858404421
284,11.0371603511387
645,99.7049887078842
2,2, 1, 2, 0, 6, 0.00,60.00,Tuesday        
6,2.95833333333333
7,100.
279,9.66771728497629
280,9.67042413581434
281,11.1103631497423
282,11.1900128468063
283,10.4903575864513
284,10.575737505966
645,100.
2,2, 1, 2, 0, 7, 0.00,60.00,Tuesday        
6,3.29166666666667
7,100.
279,9.49300337663485
280,9.49750929623863
281,11.0134230566719
282,11.1074821630754
283,11.0398034252079
284,10.7655178010991
645,94.9344893217717
2,2, 1, 2, 0, 8, 0.00,60.00,Tuesday        
6,3.79166666666667
7,100.
279,12.6228341358071
280,12.6463115801723
281,14.0486598844007
282,14.150990369325
283,16.2575405883378
284,15.2213487753769
645,97.6487891665762
2,2, 1, 2, 0, 9, 0.00,60.00,Tuesday        
6,3.76666666666667
7,100.
279,10.6478268397295
280,10.6502991147447
281,12.1851654936936
282,12.2983000346314
283,11.6975869615811
284,11.8166350460321
645,98.3332942024061
2,2, 1, 2, 0,10, 0.00,60.00,Tuesday        
6,3.54166666666667
7,100.
279,9.72394067689245
280,9.73175648444596
281,11.2573976148248
282,11.3828381007614
283,10.6611358080232
284,10.7528612747612
645,100.
2,2, 1, 2, 0,11, 0.00,60.00,Tuesday        
6,4.49166666666667
7,100.
279,9.27608459942103
280,9.29860834518584
281,10.774982403699
282,10.9079167205987
283,10.18729959049
284,10.2707367757045
645,100.
2,2, 1, 2, 0,12, 0.00,60.00,Tuesday        
6,5.375
7,100.
279,9.02813771567835
280,9.09322495437902
281,10.4449409612024
282,10.5755626998627
283,9.9029503387988
284,9.98397423616744
645,100.
2,2, 1, 2, 0,13, 0.00,60.00,Tuesday        
6,6.14166666666667
7,98.8333333333333
279,8.93478052909508
280,9.02822475539994
281,10.2049293063533
282,10.32810594102
283,9.73143146353902
284,9.80452937752339
645,99.9953562571484
2,2, 1, 2, 0,14, 0.00,60.00,Tuesday        
6,6.36666666666667
7,99.1666666666667
279,8.89806022321692
280,8.97680233650231
281,9.99494090313058
282,10.1099377880688
283,9.58589060795532
284,9.63951692513617
645,100.
2,2, 1, 2, 0,15, 0.00,60.00,Tuesday        
6,6.49166666666667
7,100.
279,8.86426704927058
280,8.92169039977006
281,9.8104291376146
282,9.91943544015982
283,9.45680451361364
284,9.49509494106512
645,99.9687932850714
2,2, 1, 2, 0,16, 0.00,60.00,Tuesday        
6,6.525
7,100.
279,9.39005355179071
280,9.43029300263585
281,10.2037865846996
282,10.3086877104109
283,10.5336911589244
284,10.2814200536134
645,92.0913420834553
2,2, 1, 2, 0,17, 0.00,60.00,Tuesday        
6,6.34166666666667
7,100.
279,9.84911860835746
280,9.87368910663413
281,10.5711505629071
282,10.6733848281789
283,10.9803640711047
284,10.7244025072688
645,88.1499594720879
2,2, 1, 2, 0,18, 0.00,60.00,Tuesday        
6,5.54166666666667
7,100.
279,9.78611283119259
280,9.79845212513774
281,10.4767723335703
282,10.578269888277
283,10.9537144908701
284,10.6081235817531
645,87.3718252228353
2,2, 1, 2, 0,19, 0.00,60.00,Tuesday        
6,4.59166666666667
7,100.
279,12.8237601918753
280,12.8327496473973
281,13.4132373599482
282,13.5079607326458
283,16.1977499654686
284,14.9652270291391
645,99.5077112694544
2,2, 1, 2, 0,20, 0.00,60.00,Tuesday        
6,5.23333333333333
7,100.
279,11.1131260675849
280,11.1144168665124
281,11.9204459732201
282,12.0115614405276
283,12.1900339272783
284,12.0405362551784
645,92.4830506521837
2,2, 1, 2, 0,21, 0.00,60.00,Tuesday        
6,5.08333333333333
7,100.
279,11.4282665596366
280,11.4283933883453
281,12.2950803736576
282,12.3849715978185
283,13.6470310971784
284,12.9162468326489
645,96.5838712539154
2,2, 1, 2, 0,22, 0.00,60.00,Tuesday        
6,4.61666666666667
7,100.
279,10.7453767853584
280,10.7417205145297
281,11.7064285084173
282,11.7954608842067
283,11.4782757567457
284,11.5059768243509
645,99.8324515669132
2,2, 1, 2, 0,23, 0.00,60.00,Tuesday        
6,4.11666666666667
7,100.
279,9.81345209536367
280,9.8156318228448
281,10.8668432679753
282,10.9563480763182
283,10.444240865214
284,10.5360535511375
645,99.9894551160983
2,2, 1, 2, 0,24, 0.00,60.00,Tuesday        
6,4.51666666666667
7,100.
279,9.31770654427037
280,9.32083184465144
281,10.4210381230607
282,10.5141696118871
283,9.97346473487811
284,10.052319505476
645,100.
2,3, 1, 3, 0, 1, 0.00,60.00,Wednesday      
6,5.91666666666667
7,100.
279,8.94048684216247
280,8.94502210723923
281,10.0599465150351
282,10.1574089444331
283,9.61642115498493
284,9.68664510825987
645,99.9774338810776
2,3, 1, 3, 0, 2, 0.00,60.00,Wednesday      
6,6.61666666666667
7,100.
279,8.72063239625548
280,8.72576609318688
281,9.76190183598096
282,9.86321466872067
283,9.35615615486529
284,9.41701813955481
645,99.720862369213
2,3, 1, 3, 0, 3, 0.00,60.00,Wednesday      
6,6.81666666666667
7,100.
279,8.62299485703586
280,8.62771936573077
281,9.52787447604858
282,9.63176459579993
283,9.17998285547824
284,9.23088233161812
645,99.3244200153717
2,3, 1, 3, 0, 4, 0.00,60.00,Wednesday      
6,7.89166666666667
7,100.
279,8.57416517063114
280,8.57922120269387
281,9.34552224286046
282,9.45021064023464
283,9.06287108314697
284,9.10375272729311
645,98.4186172896544
2,3, 1, 3, 0, 5, 0.00,60.00,Wednesday      
6,7.55
7,100.
279,8.58471179921736
280,8.58881933136841
281,9.20836263618465
282,9.31178658180892
283,8.98469153034353
284,9.01714882903609
645,97.4002143661137
2,3, 1, 3, 0, 6, 0.00,60.00,Wednesday      
6,6.91666666666667
7,100.
279,8.60181026365246
280,8.60407628107581
281,9.09834101404445
282,9.19858062120081
283,8.92232180368927
284,8.94847793906771
645,95.74541992395
2,3, 1, 3, 0, 7, 0.00,60.00,Wednesday      
6,7.23333333333333
7,100.
279,8.87704337936584
280,8.87920953905604
281,9.31194649760866
282,9.40820700492075
283,9.8415021932752
284,9.50056339161731
645,88.9600954573016
2,3, 1, 3, 0, 8, 0.00,60.00,Wednesday      
6,7.34166666666667
7,100.
279,12.3257675238625
280,12.3447992698333
281,12.6204095746876
282,12.7055409485315
283,15.3133962007132
284,14.2305028872094
645,97.5343671958378
2,3, 1, 3, 0, 9, 0.00,60.00,Wednesday      
6,7.18333333333333
7,100.
279,10.5936228492879
280,10.5960281191559
281,11.0072394215609
282,11.0840971513487
283,11.0024386457748
284,11.0909389558675
645,97.544875418838
2,3, 1, 3, 0,10, 0.00,60.00,Wednesday      
6,8.325
7,100.
279,9.90474597820515
280,9.91500974072708
281,10.3500038784914
282,10.4239436291898
283,10.2393805661055
284,10.3020031268846
645,99.3108575384836
2,3, 1, 3, 0,11, 0.00,60.00,Wednesday      
6,8.38333333333333
7,100.
279,9.70615195570443
280,9.72034881925465
281,10.1036268344713
282,10.1730223439042
283,10.0023667146259
284,10.0457202887812
645,97.8109482026469
2,3, 1, 3, 0,12, 0.00,60.00,Wednesday      
6,8.90833333333333
7,100.
279,9.66745685963561
280,9.68774763043862
281,9.98343154713081
282,10.0457739615616
283,9.9203514608627
284,9.95609703547307
645,96.2264935763196
2,3, 1, 3, 0,13, 0.00,60.00,Wednesday      
6,9.40833333333333
7,100.
279,9.70109597390699
280,9.73267293242228
281,9.94447436776661
282,9.998145583302
283,9.92222524539282
284,9.95863787997425
645,95.4820777517624
2,3, 1, 3, 0,14, 0.00,60.00,Wednesday      
6,9.60833333333333
7,100.
279,9.78504421477753
280,9.81308390963193
281,9.91639650667727
282,9.95824410693123
283,9.9397519914931
284,9.96041405511487
645,95.0165579231821
2,3, 1, 3, 0,15, 0.00,60.00,Wednesday      
6,9.43333333333333
7,98.8333333333333
279,9.85230512459985
280,9.87494174162955
281,9.90098618809312
282,9.93061439725486
283,9.95585398684594
284,9.96099086188207
645,94.6936684924886
2,3, 1, 3, 0,16, 0.00,60.00,Wednesday      
6,9.625
7,99.1666666666667
279,10.4697716683752
280,10.487472365133
281,10.4499080480072
282,10.4687701577749
283,11.1588038404972
284,10.8785225120629
645,87.2768794750543
2,3, 1, 3, 0,17, 0.00,60.00,Wednesday      
6,9.94166666666667
7,100.
279,11.0058467733184
280,11.0174806230838
281,10.9583103922431
282,10.9687982703396
283,11.7179327526891
284,11.4402333977682
645,84.0281089142765
2,3, 1, 3, 0,18, 0.00,60.00,Wednesday      
6,9.375
7,100.
279,11.0614356249517
280,11.0665637183989
281,11.003412985438
282,11.0086534443925
283,11.8165017664082
284,11.4534386438781
645,83.4414817526804
2,3, 1, 3, 0,19, 0.00,60.00,Wednesday      
6,9.46666666666667
7,100.
279,14.205053631621
280,14.2108494328825
281,14.0549571167118
282,14.0498286137117
283,17.1061161105222
284,15.8900635357458
645,99.2332543404387
2,3, 1, 3, 0,20, 0.00,60.00,Wednesday      
6,8.86666666666667
7,100.
279,12.6350797561799
280,12.6334201478
281,12.6672288695165
282,12.6540684929142
283,13.1707593992874
284,13.0527142444078
645,92.433200570791
2,3, 1, 3, 0,21, 0.00,60.00,Wednesday      
6,7.20833333333333
7,100.
279,13.1247811971057
280,13.1191217432938
281,13.2163394013358
282,13.2004308930853
283,14.894670465835
284,14.1343771433408
645,97.2627671838071
2,3, 1, 3, 0,22, 0.00,60.00,Wednesday      
6,7.025
7,100.
279,12.4466987997696
280,12.4387581847189
281,12.7481399043264
282,12.7304289558291
283,12.7999957576099
284,12.8054248384826
645,99.6365867684093
2,3, 1, 3, 0,23, 0.00,60.00,Wednesday      
6,7.925
7,100.
279,11.5017118611509
280,11.5016286169291
281,12.0039451027707
282,11.9866208920764
283,11.8428093448372
284,11.9052296799845
645,99.7430903084999
2,3, 1, 3, 0,24, 0.00,60.00,Wednesday      
6,8.00833333333333
7,100.
279,11.0752545655853
280,11.0767021528334
281,11.6466843466643
282,11.6352496299985
283,11.4433645986728
284,11.4963192803716
645,98.683759424889
2,4, 1, 4, 0, 1, 0.00,60.00,Thursday       
6,7.50833333333333
7,100.
279,10.798581395196
280,10.8000043802939
281,11.3755324763665
282,11.3714500476591
283,11.1682188484126
284,11.2127465719904
645,97.8819921231877
2,4, 1, 4, 0, 2, 0.00,60.00,Thursday       
6,6.95
7,100.
279,10.5485925585893
280,10.5497915737598
281,11.1382382766796
282,11.141454535967
283,10.9245688252327
284,10.9649830462868
645,97.7524757412385
2,4, 1, 4, 0, 3, 0.00,60.00,Thursday       
6,6.23333333333333
7,100.
279,10.2821317107848
280,10.2830003473419
281,10.907845384299
282,10.9181120678011
283,10.6758391271711
284,10.7159518097535
645,97.9683234445425
2,4, 1, 4, 0, 4, 0.00,60.00,Thursday       
6,6.36666666666667
7,100.
279,9.99153516733501
280,9.99287491985365
281,10.6767239714442
282,10.6942173702085
283,10.4246018173176
284,10.4641910198198
645,98.3599053924301
2,4, 1, 4, 0, 5, 0.00,60.00,Thursday       
6,6.525
7,100.
279,9.7175516876195
280,9.71951823450459
281,10.4490902926249
282,10.4742638454422
283,10.1788694815162
284,10.2188121997987
645,98.9130445504704
2,4, 1, 4, 0, 6, 0.00,60.00,Thursday       
6,7.1
7,100.
279,9.49928193811181
280,9.5019160386083
281,10.2368214515242
282,10.269924240585
283,9.96942361807766
284,10.0064775533647
645,99.3574660227104
2,4, 1, 4, 0, 7, 0.00,60.00,Thursday       
6,6.43333333333333
7,100.
279,9.6581238389691
280,9.66062614434659
281,10.3524286020403
282,10.3935321566551
283,10.7692316549155
284,10.4432625611513
645,93.4949996588319
2,4, 1, 4, 0, 8, 0.00,60.00,Thursday       
6,5.89166666666667
7,100.
279,12.9853869952071
280,13.0050598225341
281,13.5488546757214
282,13.5908306354397
283,16.0426315874116
284,15.0152662265508
645,97.7226068983347
2,4, 1, 4, 0, 9, 0.00,60.00,Thursday       
6,7.15
7,100.
279,11.1109018521119
280,11.1145919250247
281,11.8487570063203
282,11.8936561996429
283,11.721126576699
284,11.8184747996119
645,98.3480201856083
2,4, 1, 4, 0,10, 0.00,60.00,Thursday       
6,6.73333333333333
7,100.
279,10.3440931970215
280,10.353273880418
281,11.1050045349767
282,11.1570224790035
283,10.8581993740712
284,10.9273974724208
645,99.9439677599235
2,4, 1, 4, 0,11, 0.00,60.00,Thursday       
6,6.075
7,100.
279,10.0418652385176
280,10.0535571190695
281,10.7627352225611
282,10.8191649090763
283,10.5180329680128
284,10.5664673688305
645,99.4268361533685
2,4, 1, 4, 0,12, 0.00,60.00,Thursday       
6,7.25
7,100.
279,9.82122376629694
280,9.85094817636685
281,10.5484371524218
282,10.6057275425228
283,10.3113995669269
284,10.3665779047042
645,98.7170326936629
2,4, 1, 4, 0,13, 0.00,60.00,Thursday       
6,7.35833333333333
7,100.
279,9.69426957437769
280,9.73772032188509
281,10.3680957132803
282,10.4221204108909
283,10.1542812391478
284,10.1999823976015
645,98.2413888977339
2,4, 1, 4, 0,14, 0.00,60.00,Thursday       
6,7.36666666666667
7,100.
279,9.64296399087496
280,9.69081238340353
281,10.2387293211164
282,10.2881388376367
283,10.0583470189974
284,10.0985803277515
645,97.7002260159359
2,4, 1, 4, 0,15, 0.00,60.00,Thursday       
6,7.75833333333333
7,98.8333333333333
279,9.58637570920892
280,9.62622710318831
281,10.1206725116506
282,10.1651930891928
283,9.9637717914327
284,9.99534885092595
645,97.3527988430991
2,4, 1, 4, 0,16, 0.00,60.00,Thursday       
6,7.74166666666667
7,99.1666666666667
279,10.1091209849162
280,10.1368821365886
281,10.5544505793936
282,10.5939307252122
283,11.0550255322842
284,10.7951448520893
645,89.7318455441912
2,4, 1, 4, 0,17, 0.00,60.00,Thursday       
6,7.99166666666667
7,100.
279,10.5654821068139
280,10.5827635580767
281,10.9606486310478
282,10.9972544174014
283,11.5212328815819
284,11.2595141219483
645,86.1381371322369
2,4, 1, 4, 0,18, 0.00,60.00,Thursday       
6,6.8
7,100.
279,10.5259510848582
280,10.5332845026177
281,10.907703611926
282,10.945578924709
283,11.5274100908604
284,11.1738424679513
645,85.5776801359946
2,4, 1, 4, 0,19, 0.00,60.00,Thursday       
6,6.96666666666667
7,100.
279,13.5674976731305
280,13.5749074272046
281,13.8684920861556
282,13.9024383823498
283,16.7512541818214
284,15.5345415131758
645,99.4172207946765
2,4, 1, 4, 0,20, 0.00,60.00,Thursday       
6,7.04166666666667
7,100.
279,11.8920918373272
280,11.8919709648201
281,12.3984747990443
282,12.4303871849644
283,12.7429661368124
284,12.6184191653651
645,92.1749279548287
2,4, 1, 4, 0,21, 0.00,60.00,Thursday       
6,6.15
7,100.
279,12.303087351475
280,12.2997027595857
281,12.8428795556573
282,12.876113291532
283,14.3490713457958
284,13.5979739336421
645,97.3506076234139
2,4, 1, 4, 0,22, 0.00,60.00,Thursday       
6,6.89166666666667
7,100.
279,11.6296459292613
280,11.6254076944068
281,12.3088637243229
282,12.3435911016963
283,12.2085479503672
284,12.2300216899336
645,99.7576872919397
2,4, 1, 4, 0,23, 0.00,60.00,Thursday       
6,6.49166666666667
7,100.
279,10.752587589717
280,10.7538984130543
281,11.5206775705181
282,11.5578504456172
283,11.2353956791412
284,11.3123260165454
645,99.7902218079229
2,4, 1, 4, 0,24, 0.00,60.00,Thursday       
6,5.58333333333333
7,100.
279,10.3479789284486
280,10.3490636904569
281,11.1313765027379
282,11.1740857656637
283,10.8221596158742
284,10.8874463041867
645,99.4093635791005
2,5, 1, 5, 0, 1, 0.00,60.00,Friday         
6,5.325
7,88.3333333333333
279,9.97369819008458
280,9.97501376969207
281,10.8080419910354
282,10.8565576698687
283,10.477531000473
284,10.5383840446799
645,99.3606881499867
2,5, 1, 5, 0, 2, 0.00,60.00,Friday         
6,5.08333333333333
7,78.25
279,9.6144729502782
280,9.61611887544036
281,10.5021432677122
282,10.5564184803492
283,10.149056715118
284,10.2087079947092
645,99.5098670013349
2,5, 1, 5, 0, 3, 0.00,60.00,Friday         
6,4.825
7,82.25
279,9.27843914201761
280,9.280378077985
281,10.2080109221227
282,10.2683626193744
283,9.83640062140057
284,9.89547543689048
645,99.6551321690837
2,5, 1, 5, 0, 4, 0.00,60.00,Friday         
6,5.225
7,84.25
279,8.96729431370104
280,8.9699158222367
281,9.92705124259216
282,9.99387836046019
283,9.54831685814237
284,9.60481933698408
645,99.5852284760177
2,5, 1, 5, 0, 5, 0.00,60.00,Friday         
6,5.01666666666667
7,85.3333333333333
279,8.70534368265013
280,8.70824076984219
281,9.66370027213442
282,9.7371025916402
283,9.28341395252546
284,9.33865650499202
645,99.2618732350997
2,5, 1, 5, 0, 6, 0.00,60.00,Friday         
6,4.075
7,87.5833333333333
279,8.47634921520192
280,8.4785819561695
281,9.41455721583
282,9.49420485371741
283,9.03401300818488
284,9.08919357406191
645,98.8150492443618
2,5, 1, 5, 0, 7, 0.00,60.00,Friday         
6,3.875
7,88.
279,8.52725536073478
280,8.52992501145981
281,9.47243472547616
282,9.55831630022299
283,9.7589954668158
284,9.45495760463855
645,92.3507438442221
2,5, 1, 5, 0, 8, 0.00,60.00,Friday         
6,4.175
7,88.
279,11.7546812217841
280,11.7757438385319
281,12.624512049878
282,12.7102236849764
283,15.0332612910162
284,13.9987212008189
645,97.4414737973603
2,5, 1, 5, 0, 9, 0.00,60.00,Friday         
6,3.95
7,90.9166666666667
279,9.83288230386769
280,9.83359362868731
281,10.8586178995865
282,10.9472629758074
283,10.5960064268749
284,10.7009474853918
645,97.5610758861151
2,5, 1, 5, 0,10, 0.00,60.00,Friday         
6,4.86666666666667
7,87.75
279,8.95590876915237
280,8.96108660941707
281,10.0275398880645
282,10.1230919284809
283,9.63643689368422
284,9.71801742225144
645,99.5031314391681
2,5, 1, 5, 0,11, 0.00,60.00,Friday         
6,6.16666666666667
7,82.25
279,8.60203332671439
280,8.62533212139876
281,9.64890351499108
282,9.74908428939538
283,9.26809674839677
284,9.34477905218014
645,98.0256517672597
2,5, 1, 5, 0,12, 0.00,60.00,Friday         
6,6.5
7,78.0833333333333
279,8.51402533225713
280,8.57824798199639
281,9.43336509617032
282,9.52888508746243
283,9.11698216539686
284,9.18557733129163
645,96.2343109215366
2,5, 1, 5, 0,13, 0.00,60.00,Friday         
6,7.66666666666667
7,71.9166666666667
279,8.55020360657301
280,8.64541266466261
281,9.31389310479542
282,9.39838452554929
283,9.07409945842135
284,9.13608409735852
645,94.5436214212687
2,5, 1, 5, 0,14, 0.00,60.00,Friday         
6,8.26666666666667
7,68.4166666666667
279,8.65116131562861
280,8.73986119258964
281,9.24295199478485
282,9.31468819128334
283,9.07468627909009
284,9.12455425760962
645,92.9434958422948
2,5, 1, 5, 0,15, 0.00,60.00,Friday         
6,8.39166666666667
7,69.1666666666667
279,8.78556571973786
280,8.85323083965858
281,9.19597072012938
282,9.25505462213333
283,9.09556041340285
284,9.12648572161439
645,90.8642551866682
2,5, 1, 5, 0,16, 0.00,60.00,Friday         
6,8.30833333333333
7,71.1666666666667
279,9.45979547868837
280,9.50640322954384
281,9.71378272732076
282,9.76159589735748
283,10.2977671142792
284,10.0323920196165
645,81.7906622229215
2,5, 1, 5, 0,17, 0.00,60.00,Friday         
6,8.33333333333333
7,70.8333333333333
279,10.0313445708501
280,10.0612653450266
281,10.1994937004085
282,10.2387171084867
283,10.8607856339381
284,10.5896523799719
645,77.2422138043633
2,5, 1, 5, 0,18, 0.00,60.00,Friday         
6,8.5
7,70.5833333333333
279,10.0795454373151
280,10.098398614481
281,10.2277573590512
282,10.2630682327622
283,10.9547518909223
284,10.5984825737883
645,76.2092759034856
2,5, 1, 5, 0,19, 0.00,60.00,Friday         
6,6.80833333333333
7,75.6666666666667
279,13.2501776475378
280,13.2634846138425
281,13.2736682837865
282,13.2999512033123
283,16.2751569499429
284,15.0461363719988
645,98.8429431145019
2,5, 1, 5, 0,20, 0.00,60.00,Friday         
6,6.41666666666667
7,75.5
279,11.6331021755339
280,11.6346604170483
281,11.86328495069
282,11.8825411482238
283,12.310229931992
284,12.1769806162988
645,87.2406219397533
2,5, 1, 5, 0,21, 0.00,60.00,Friday         
6,6.125
7,75.3333333333333
279,11.9943787051973
280,11.9936369030118
281,12.3526938133609
282,12.3702208364314
283,13.9355447394212
284,13.1783133162041
645,94.9540287552379
2,5, 1, 5, 0,22, 0.00,60.00,Friday         
6,5.90833333333333
7,73.5
279,11.3031774046722
280,11.298964768789
281,11.8399176595626
282,11.8568940102043
283,11.7946649847238
284,11.8079326715153
645,99.5784279168987
2,5, 1, 5, 0,23, 0.00,60.00,Friday         
6,5.90833333333333
7,72.1666666666667
279,10.3769266355189
280,10.3786935814143
281,11.0623787867697
282,11.081156931881
283,10.8064916443458
284,10.8817557832416
645,98.3327557059057
2,5, 1, 5, 0,24, 0.00,60.00,Friday         
6,5.525
7,70.6666666666667
279,9.92334189508576
280,9.92532205647703
281,10.6738802186335
282,10.6990963599773
283,10.375417162143
284,10.4412168289144
645,96.0840113709102
2,6, 1, 6, 0, 1, 0.00,60.00,Saturday       
6,5.16666666666667
7,87.0833333333333
279,9.55402407836706
280,9.55589240897997
281,10.352826180466
282,10.3854507232204
283,10.0315554946605
284,10.0933280737226
645,94.1842477587959
2,6, 1, 6, 0, 2, 0.00,60.00,Saturday       
6,4.53333333333333
7,100.
279,9.21667314508188
280,9.21847059863926
281,10.058591604418
282,10.0986986724911
283,9.71720429384387
284,9.77699737612931
645,93.8688357400614
2,6, 1, 6, 0, 3, 0.00,60.00,Saturday       
6,4.08333333333333
7,100.
279,8.87708738145454
280,8.87934831863068
281,9.76964113187979
282,9.81718789971949
283,9.40038737968899
284,9.46320427778346
645,94.302348712055
2,6, 1, 6, 0, 4, 0.00,60.00,Saturday       
6,3.125
7,100.
279,8.52852211693726
280,8.53097319167515
281,9.48011948169046
282,9.53530210773827
283,9.07790489313717
284,9.14429592654009
645,94.2559699999376
2,6, 1, 6, 0, 5, 0.00,60.00,Saturday       
6,2.85
7,100.
279,8.1447786873281
280,8.14747228268482
281,9.17227839778911
282,9.2356871216207
283,8.72458679238184
284,8.80011889296163
645,93.5746604324144
2,6, 1, 6, 0, 6, 0.00,60.00,Saturday       
6,2.75
7,100.
279,7.7564608663272
280,7.7598766431837
281,8.86277816031342
282,8.93514866861448
283,8.37460630397818
284,8.4567706946025
645,91.5780738840868
2,6, 1, 6, 0, 7, 0.00,60.00,Saturday       
6,2.15
7,100.
279,7.39731518460675
280,7.400781133309
281,8.54906732349305
282,8.63079608828969
283,8.03344016137506
284,8.11979902525588
645,89.4430349457238
2,6, 1, 6, 0, 8, 0.00,60.00,Saturday       
6,2.30833333333333
7,100.
279,10.5560472152939
280,10.5770111979923
281,11.6174864769226
282,11.7057111104908
283,13.9403238406399
284,12.9154647483065
645,97.1376563618877
2,6, 1, 6, 0, 9, 0.00,60.00,Saturday       
6,2.95
7,100.
279,9.021892726164
280,9.02283567969559
281,10.2171573852875
282,10.3159911145405
283,10.4833839067477
284,10.2691343914758
645,93.3112132025058
2,6, 1, 6, 0,10, 0.00,60.00,Saturday       
6,3.60833333333333
7,100.
279,8.46823340349481
280,8.47645854759724
281,9.68781126754511
282,9.794036626655
283,9.87937528177324
284,9.61700100670798
645,88.7338091972729
2,6, 1, 6, 0,11, 0.00,60.00,Saturday       
6,3.025
7,100.
279,8.31945662330394
280,8.37301408580443
281,9.52386916249908
282,9.6103649468087
283,9.70816887650046
284,9.42899072178131
645,82.7866942363718
2,6, 1, 6, 0,12, 0.00,60.00,Saturday       
6,3.625
7,100.
279,8.32739177646972
280,8.58565298196745
281,9.55233061732985
282,9.5821223503918
283,9.76814202520474
284,9.46971772855316
645,77.1715149360113
2,6, 1, 6, 0,13, 0.00,60.00,Saturday       
6,5.66666666666667
7,100.
279,8.44056496923067
280,8.82910880763841
281,9.68406751696212
282,9.66155737647176
283,9.93550954597313
284,9.62211646831933
645,75.5351943878108
2,6, 1, 6, 0,14, 0.00,60.00,Saturday       
6,6.61666666666667
7,100.
279,8.66921265863061
280,9.00308416397307
281,9.81937796937951