Program Version,EnergyPlus-Darwin-64 8.1.0.009, YMD=2016.01.20 13:59
1,5,Environment Title[],Latitude[deg],Longitude[deg],Time Zone[],Elevation[m]
2,6,Day of Simulation[],Month[],Day of Month[],DST Indicator[1=yes 0=no],Hour[],StartMinute[],EndMinute[],DayType
3,3,Cumulative Day of Simulation[],Month[],Day of Month[],DST Indicator[1=yes 0=no],DayType  ! When Daily Report Variables Requested
4,2,Cumulative Days of Simulation[],Month[]  ! When Monthly Report Variables Requested
5,1,Cumulative Days of Simulation[] ! When Run Period Report Variables Requested
226,1,PERIMETER_ZN_1_WALL_SOUTH_WINDOW_1,Surface Window Transmitted Solar Radiation Rate [W] !TimeStep
227,1,PERIMETER_ZN_1_WALL_SOUTH_WINDOW_1,Surface Window Thermochromic Layer Temperature [C] !TimeStep
228,1,PERIMETER_ZN_1_WALL_SOUTH_WINDOW_1,Surface Window Thermochromic Layer Property Specification Temperature [C] !TimeStep
End of Data Dictionary
1,4250290 - UK WG data WMO#=03534,  52.48,  -1.67,   0.00,  96.00
2,1, 7, 1, 1, 1, 0.00,10.00,Sunday         
226,0.0
227,18.2105926310401
228,25.
2,1, 7, 1, 1, 1,10.00,20.00,Sunday         
226,0.0
227,17.9788518506923
228,25.
2,1, 7, 1, 1, 1,20.00,30.00,Sunday         
226,0.0
227,17.7578741539844
228,25.
2,1, 7, 1, 1, 1,30.00,40.00,Sunday         
226,0.0
227,17.5317280644093
228,25.
2,1, 7, 1, 1, 1,40.00,50.00,Sunday         
226,0.0
227,17.3081806307313
228,25.
2,1, 7, 1, 1, 1,50.00,60.00,Sunday         
226,0.0
227,17.0771058951771
228,25.
2,1, 7, 1, 1, 2, 0.00,10.00,Sunday         
226,0.0
227,17.0844496743647
228,25.
2,1, 7, 1, 1, 2,10.00,20.00,Sunday         
226,0.0
227,17.0881609329713
228,25.
2,1, 7, 1, 1, 2,20.00,30.00,Sunday         
226,0.0
227,17.0959604088404
228,25.
2,1, 7, 1, 1, 2,30.00,40.00,Sunday         
226,0.0
227,17.1045919319697
228,25.
2,1, 7, 1, 1, 2,40.00,50.00,Sunday         
226,0.0
227,17.113618611825
228,25.
2,1, 7, 1, 1, 2,50.00,60.00,Sunday         
226,0.0
227,17.1226800411397
228,25.
2,1, 7, 1, 1, 3, 0.00,10.00,Sunday         
226,0.0
227,17.1048629379789
228,25.
2,1, 7, 1, 1, 3,10.00,20.00,Sunday         
226,0.0
227,17.0892616823689
228,25.
2,1, 7, 1, 1, 3,20.00,30.00,Sunday         
226,0.0
227,17.0724207812423
228,25.
2,1, 7, 1, 1, 3,30.00,40.00,Sunday         
226,0.0
227,17.0555980805082
228,25.
2,1, 7, 1, 1, 3,40.00,50.00,Sunday         
226,0.0
227,17.0388394810715
228,25.
2,1, 7, 1, 1, 3,50.00,60.00,Sunday         
226,0.0
227,17.0222525479275
228,25.
2,1, 7, 1, 1, 4, 0.00,10.00,Sunday         
226,0.0
227,17.0321509235803
228,25.
2,1, 7, 1, 1, 4,10.00,20.00,Sunday         
226,0.0
227,17.0419820442867
228,25.
2,1, 7, 1, 1, 4,20.00,30.00,Sunday         
226,0.0
227,17.0529452770839
228,25.
2,1, 7, 1, 1, 4,30.00,40.00,Sunday         
226,0.0
227,17.0641544979562
228,25.
2,1, 7, 1, 1, 4,40.00,50.00,Sunday         
226,0.0
227,17.0754565354947
228,25.
2,1, 7, 1, 1, 4,50.00,60.00,Sunday         
226,3.26717471642364
227,17.4753766694552
228,25.
2,1, 7, 1, 1, 5, 0.00,10.00,Sunday         
226,4.34117311048119
227,17.5168941994119
228,25.
2,1, 7, 1, 1, 5,10.00,20.00,Sunday         
226,5.4308570872971
227,17.6226860029626
228,25.
2,1, 7, 1, 1, 5,20.00,30.00,Sunday         
226,6.524763178569
227,17.7296023928288
228,25.
2,1, 7, 1, 1, 5,30.00,40.00,Sunday         
226,7.37229079151319
227,17.8098103925271
228,25.
2,1, 7, 1, 1, 5,40.00,50.00,Sunday         
226,8.21429059783476
227,17.8874832144634
228,25.
2,1, 7, 1, 1, 5,50.00,60.00,Sunday         
226,9.0259253195259
227,17.9612796321539
228,25.
2,1, 7, 1, 1, 6, 0.00,10.00,Sunday         
226,9.82449877612601
227,18.0219203084782
228,25.
2,1, 7, 1, 1, 6,10.00,20.00,Sunday         
226,10.6254110127916
227,18.0819856103372
228,25.
2,1, 7, 1, 1, 6,20.00,30.00,Sunday         
226,11.4285557760289
227,18.1418747219089
228,25.
2,1, 7, 1, 1, 6,30.00,40.00,Sunday         
226,12.9659495017006
227,18.2775459439564
228,25.
2,1, 7, 1, 1, 6,40.00,50.00,Sunday         
226,14.5107517751113
227,18.4179719178574
228,25.
2,1, 7, 1, 1, 6,50.00,60.00,Sunday         
226,16.0545924525529
227,18.5585045099004
228,25.
2,1, 7, 1, 1, 7, 0.00,10.00,Sunday         
226,17.5786998144472
227,18.8321327415883
228,25.
2,1, 7, 1, 1, 7,10.00,20.00,Sunday         
226,19.08576990492
227,19.1576960799401
228,25.
2,1, 7, 1, 1, 7,20.00,30.00,Sunday         
226,20.5911215146878
227,19.4169743296508
228,25.
2,1, 7, 1, 1, 7,30.00,40.00,Sunday         
226,22.0730394777927
227,19.6743054982153
228,25.
2,1, 7, 1, 1, 7,40.00,50.00,Sunday         
226,23.5529645830776
227,19.850205581115
228,25.
2,1, 7, 1, 1, 7,50.00,60.00,Sunday         
226,25.030722317297
227,20.1140556980424
228,25.
2,1, 7, 1, 1, 8, 0.00,10.00,Sunday         
226,26.5061358292033
227,20.3540408796749
228,25.
2,1, 7, 1, 1, 8,10.00,20.00,Sunday         
226,27.9790266083123
227,20.5929459958705
228,25.
2,1, 7, 1, 1, 8,20.00,30.00,Sunday         
226,29.468777929005
227,20.8329428425794
228,25.
2,1, 7, 1, 1, 8,30.00,40.00,Sunday         
226,30.8720758204434
227,21.0633809242134
228,25.
2,1, 7, 1, 1, 8,40.00,50.00,Sunday         
226,32.2833005270446
227,21.2939560817362
228,25.
2,1, 7, 1, 1, 8,50.00,60.00,Sunday         
226,33.7026121023914
227,21.5248235846282
228,25.
2,1, 7, 1, 1, 9, 0.00,10.00,Sunday         
226,35.1301177693552
227,21.7145526216678
228,25.
2,1, 7, 1, 1, 9,10.00,20.00,Sunday         
226,36.5658727688943
227,21.9129285845997
228,25.
2,1, 7, 1, 1, 9,20.00,30.00,Sunday         
226,38.0098803671891
227,22.1123172918197
228,25.
2,1, 7, 1, 1, 9,30.00,40.00,Sunday         
226,39.241046224126
227,22.2907280109198
228,25.
2,1, 7, 1, 1, 9,40.00,50.00,Sunday         
226,40.4771104276143
227,22.4679133672801
228,25.
2,1, 7, 1, 1, 9,50.00,60.00,Sunday         
226,41.7181767923893
227,22.6449736719046
228,25.
2,1, 7, 1, 1,10, 0.00,10.00,Sunday         
226,42.9642523336845
227,22.8735001536581
228,25.
2,1, 7, 1, 1,10,10.00,20.00,Sunday         
226,44.21525263294
227,23.0933768845735
228,25.
2,1, 7, 1, 1,10,20.00,30.00,Sunday         
226,45.4710050427126
227,23.3134840424636
228,25.
2,1, 7, 1, 1,10,30.00,40.00,Sunday         
226,54.824367557347
227,24.4353167000353
228,25.
2,1, 7, 1, 1,10,40.00,50.00,Sunday         
226,68.1719417397923
227,25.9350021020929
228,25.
2,1, 7, 1, 1,10,50.00,60.00,Sunday         
226,79.0763237869666
227,27.2384793137517
228,25.
2,1, 7, 1, 1,11, 0.00,10.00,Sunday         
226,90.4680470555458
227,28.6059487895288
228,27.
2,1, 7, 1, 1,11,10.00,20.00,Sunday         
226,99.3864069847967
227,30.1838851820921
228,29.
2,1, 7, 1, 1,11,20.00,30.00,Sunday         
226,108.173310072125
227,31.8048834419264
228,31.
2,1, 7, 1, 1,11,30.00,40.00,Sunday         
226,107.241888261948
227,32.3750381013857
228,31.
2,1, 7, 1, 1,11,40.00,50.00,Sunday         
226,109.238800342316
227,32.7653243422508
228,33.
2,1, 7, 1, 1,11,50.00,60.00,Sunday         
226,108.066534930875
227,33.3271475138915
228,33.
2,1, 7, 1, 1,12, 0.00,10.00,Sunday         
226,109.792291744317
227,33.5475336981002
228,33.
2,1, 7, 1, 1,12,10.00,20.00,Sunday         
226,111.401756285034
227,33.7649727119071
228,33.
2,1, 7, 1, 1,12,20.00,30.00,Sunday         
226,112.890668781948
227,33.9698027362716
228,33.
2,1, 7, 1, 1,12,30.00,40.00,Sunday         
226,113.50731169741
227,34.0842948823499
228,33.
2,1, 7, 1, 1,12,40.00,50.00,Sunday         
226,113.993074405155
227,34.182432469384
228,35.
2,1, 7, 1, 1,12,50.00,60.00,Sunday         
226,111.250701712028
227,34.4579469471739
228,35.
2,1, 7, 1, 1,13, 0.00,10.00,Sunday         
226,111.465348691574
227,34.5723844544131
228,35.
2,1, 7, 1, 1,13,10.00,20.00,Sunday         
226,111.549849769449
227,34.6759900308778
228,35.
2,1, 7, 1, 1,13,20.00,30.00,Sunday         
226,111.504084263704
227,34.7671067351081
228,35.
2,1, 7, 1, 1,13,30.00,40.00,Sunday         
226,110.585166950072
227,34.7678281119962
228,35.
2,1, 7, 1, 1,13,40.00,50.00,Sunday         
226,109.540663541901
227,34.7472021504005
228,35.
2,1, 7, 1, 1,13,50.00,60.00,Sunday         
226,108.373081397708
227,34.7147550112099
228,35.
2,1, 7, 1, 1,14, 0.00,10.00,Sunday         
226,107.08534547304
227,34.5274602997215
228,35.
2,1, 7, 1, 1,14,10.00,20.00,Sunday         
226,105.680842941465
227,34.3179511719807
228,35.
2,1, 7, 1, 1,14,20.00,30.00,Sunday         
226,104.163489289424
227,34.1070006578617
228,35.
2,1, 7, 1, 1,14,30.00,40.00,Sunday         
226,93.2820245658196
227,32.7472825626767
228,35.
2,1, 7, 1, 1,14,40.00,50.00,Sunday         
226,82.6800721997497
227,31.4204342912471
228,33.
2,1, 7, 1, 1,14,50.00,60.00,Sunday         
226,74.4137746810842
227,29.991660036161
228,31.
2,1, 7, 1, 1,15, 0.00,10.00,Sunday         
226,66.0305309918012
227,28.7186477254926
228,29.
2,1, 7, 1, 1,15,10.00,20.00,Sunday         
226,54.3715752256
227,27.1527282105822
228,29.
2,1, 7, 1, 1,15,20.00,30.00,Sunday         
226,45.0033470310252
227,26.1211146799629
228,27.
2,1, 7, 1, 1,15,30.00,40.00,Sunday         
226,52.226656806079
227,26.7619531580485
228,27.
2,1, 7, 1, 1,15,40.00,50.00,Sunday         
226,60.6028495402462
227,27.7662569246078
228,27.
2,1, 7, 1, 1,15,50.00,60.00,Sunday         
226,65.6765376502282
227,28.4100933534856
228,27.
2,1, 7, 1, 1,16, 0.00,10.00,Sunday         
226,70.2526615203466
227,29.0627543221165
228,29.
2,1, 7, 1, 1,16,10.00,20.00,Sunday         
226,72.2462288460778
227,29.8022947190992
228,29.
2,1, 7, 1, 1,16,20.00,30.00,Sunday         
226,75.7140036514562
227,30.3255976453484
228,29.
2,1, 7, 1, 1,16,30.00,40.00,Sunday         
226,71.8894938970739
227,30.0175440715163
228,31.
2,1, 7, 1, 1,16,40.00,50.00,Sunday         
226,66.2712657006477
227,29.8290056790771
228,31.
2,1, 7, 1, 1,16,50.00,60.00,Sunday         
226,62.7845325444182
227,29.497411782691
228,29.
2,1, 7, 1, 1,17, 0.00,10.00,Sunday         
226,61.1280754122058
227,28.9715547861528
228,29.
2,1, 7, 1, 1,17,10.00,20.00,Sunday         
226,57.8067408954687
227,28.5634564557439
228,29.
2,1, 7, 1, 1,17,20.00,30.00,Sunday         
226,54.6166595068442
227,28.166772593764
228,29.
2,1, 7, 1, 1,17,30.00,40.00,Sunday         
226,51.31018522417
227,27.7589842876037
228,29.
2,1, 7, 1, 1,17,40.00,50.00,Sunday         
226,48.1186294040717
227,27.3724998111824
228,27.
2,1, 7, 1, 1,17,50.00,60.00,Sunday         
226,46.8685183927616
227,26.9918571536309
228,27.
2,1, 7, 1, 1,18, 0.00,10.00,Sunday         
226,44.5642994855102
227,26.6824203506422
228,27.
2,1, 7, 1, 1,18,10.00,20.00,Sunday         
226,42.2439613334747
227,26.3763189691332
228,27.
2,1, 7, 1, 1,18,20.00,30.00,Sunday         
226,39.9079695829025
227,26.0688420003519
228,27.
2,1, 7, 1, 1,18,30.00,40.00,Sunday         
226,37.4525330751537
227,25.7490356293538
228,27.
2,1, 7, 1, 1,18,40.00,50.00,Sunday         
226,34.9829915410549
227,25.4275653243947
228,25.
2,1, 7, 1, 1,18,50.00,60.00,Sunday         
226,33.443396419707
227,25.0429817878105
228,25.
2,1, 7, 1, 1,19, 0.00,10.00,Sunday         
226,30.8756287868266
227,24.8146088393947
228,25.
2,1, 7, 1, 1,19,10.00,20.00,Sunday         
226,28.2957552176961
227,24.5742863227622
228,25.
2,1, 7, 1, 1,19,20.00,30.00,Sunday         
226,25.7044684498797
227,24.329903562951
228,25.
2,1, 7, 1, 1,19,30.00,40.00,Sunday         
226,22.4827106083952
227,24.0054088327715
228,25.
2,1, 7, 1, 1,19,40.00,50.00,Sunday         
226,19.2149922743879
227,23.6845701693649
228,25.
2,1, 7, 1, 1,19,50.00,60.00,Sunday         
226,15.9432847371289
227,23.3599911701928
228,25.
2,1, 7, 1, 1,20, 0.00,10.00,Sunday         
226,12.6580564148833
227,22.8884175041041
228,25.
2,1, 7, 1, 1,20,10.00,20.00,Sunday         
226,9.34325320514395
227,22.4063825376019
228,25.
2,1, 7, 1, 1,20,20.00,30.00,Sunday         
226,5.59160751090539
227,21.8677932430146
228,25.
2,1, 7, 1, 1,20,30.00,40.00,Sunday         
226,4.88723852156447
227,21.6627844267277
228,25.
2,1, 7, 1, 1,20,40.00,50.00,Sunday         
226,4.18412690370891
227,21.4521308626606
228,25.
2,1, 7, 1, 1,20,50.00,60.00,Sunday         
226,3.48205651064672
227,21.2420616335093
228,25.
2,1, 7, 1, 1,21, 0.00,10.00,Sunday         
226,2.78050520793095
227,20.975318576563
228,25.
2,1, 7, 1, 1,21,10.00,20.00,Sunday         
226,2.07795946519477
227,20.7291323749404
228,25.
2,1, 7, 1, 1,21,20.00,30.00,Sunday         
226,0.0
227,20.3327914043879
228,25.
2,1, 7, 1, 1,21,30.00,40.00,Sunday         
226,0.0
227,20.1658411924191
228,25.
2,1, 7, 1, 1,21,40.00,50.00,Sunday         
226,0.0
227,19.9994860529915
228,25.
2,1, 7, 1, 1,21,50.00,60.00,Sunday         
226,0.0
227,19.8354618200675
228,25.
2,1, 7, 1, 1,22, 0.00,10.00,Sunday         
226,0.0
227,19.7211019879941
228,25.
2,1, 7, 1, 1,22,10.00,20.00,Sunday         
226,0.0
227,19.6091122893086
228,25.
2,1, 7, 1, 1,22,20.00,30.00,Sunday         
226,0.0
227,19.4978612926063
228,25.
2,1, 7, 1, 1,22,30.00,40.00,Sunday         
226,0.0
227,19.3870502232775
228,25.
2,1, 7, 1, 1,22,40.00,50.00,Sunday         
226,0.0
227,19.2764650710731
228,25.
2,1, 7, 1, 1,22,50.00,60.00,Sunday         
226,0.0
227,19.1659770289788
228,25.
2,1, 7, 1, 1,23, 0.00,10.00,Sunday         
226,0.0
227,19.0818220474187
228,25.
2,1, 7, 1, 1,23,10.00,20.00,Sunday         
226,0.0
227,18.9986199351816
228,25.
2,1, 7, 1, 1,23,20.00,30.00,Sunday         
226,0.0
227,18.9155623595007
228,25.
2,1, 7, 1, 1,23,30.00,40.00,Sunday         
226,0.0
227,18.8325075788209
228,25.
2,1, 7, 1, 1,23,40.00,50.00,Sunday         
226,0.0
227,18.7493718272945
228,25.
2,1, 7, 1, 1,23,50.00,60.00,Sunday         
226,0.0
227,18.6661122155614
228,25.
2,1, 7, 1, 1,24, 0.00,10.00,Sunday         
226,0.0
227,18.6233477302706
228,25.
2,1, 7, 1, 1,24,10.00,20.00,Sunday         
226,0.0
227,18.582863324992
228,25.
2,1, 7, 1, 1,24,20.00,30.00,Sunday         
226,0.0
227,18.5434295800977
228,25.
2,1, 7, 1, 1,24,30.00,40.00,Sunday         
226,0.0
227,18.5047340798179
228,25.
2,1, 7, 1, 1,24,40.00,50.00,Sunday         
226,0.0
227,18.4665678440356
228,25.
2,1, 7, 1, 1,24,50.00,60.00,Sunday         
226,0.0
227,18.4288165913429
228,25.
2,2, 7, 2, 1, 1, 0.00,10.00,Monday         
226,0.0
227,18.394513154585
228,25.
2,2, 7, 2, 1, 1,10.00,20.00,Monday         
226,0.0
227,18.3603524166465
228,25.
2,2, 7, 2, 1, 1,20.00,30.00,Monday         
226,0.0
227,18.3257008714889
228,25.
2,2, 7, 2, 1, 1,30.00,40.00,Monday         
226,0.0
227,18.2902184590288
228,25.
2,2, 7, 2, 1, 1,40.00,50.00,Monday         
226,0.0
227,18.2536892088592
228,25.
2,2, 7, 2, 1, 1,50.00,60.00,Monday         
226,0.0
227,18.2165796703583
228,25.
2,2, 7, 2, 1, 2, 0.00,10.00,Monday         
226,0.0
227,18.0142440169756
228,25.
2,2, 7, 2, 1, 2,10.00,20.00,Monday         
226,0.0
227,17.8117949222602
228,25.
2,2, 7, 2, 1, 2,20.00,30.00,Monday         
226,0.0
227,17.6093735627657
228,25.
2,2, 7, 2, 1, 2,30.00,40.00,Monday         
226,0.0
227,17.4074534950266
228,25.
2,2, 7, 2, 1, 2,40.00,50.00,Monday         
226,0.0
227,17.2065781438026
228,25.
2,2, 7, 2, 1, 2,50.00,60.00,Monday         
226,0.0
227,17.0142282819885
228,25.
2,2, 7, 2, 1, 3, 0.00,10.00,Monday         
226,0.0
227,16.8499253181803
228,25.
2,2, 7, 2, 1, 3,10.00,20.00,Monday         
226,0.0
227,16.6867439827352
228,25.
2,2, 7, 2, 1, 3,20.00,30.00,Monday         
226,0.0
227,16.5241460756689
228,25.
2,2, 7, 2, 1, 3,30.00,40.00,Monday         
226,0.0
227,16.3619773727505
228,25.
2,2, 7, 2, 1, 3,40.00,50.00,Monday         
226,0.0
227,16.2001220187061
228,25.
2,2, 7, 2, 1, 3,50.00,60.00,Monday         
226,0.0
227,16.0385688443114
228,25.
2,2, 7, 2, 1, 4, 0.00,10.00,Monday         
226,0.0
227,16.0115095489615
228,25.
2,2, 7, 2, 1, 4,10.00,20.00,Monday         
226,0.0
227,15.9893318910568
228,25.
2,2, 7, 2, 1, 4,20.00,30.00,Monday         
226,0.0
227,15.9688775248742
228,25.
2,2, 7, 2, 1, 4,30.00,40.00,Monday         
226,0.0
227,15.949093955412
228,25.
2,2, 7, 2, 1, 4,40.00,50.00,Monday         
226,0.0
227,15.9304718565318
228,25.
2,2, 7, 2, 1, 4,50.00,60.00,Monday         
226,3.18711103813012
227,16.2615632608315
228,25.
2,2, 7, 2, 1, 5, 0.00,10.00,Monday         
226,4.24329084354406
227,16.3914202837968
228,25.
2,2, 7, 2, 1, 5,10.00,20.00,Monday         
226,5.31583237108738
227,16.5294774130003
228,25.
2,2, 7, 2, 1, 5,20.00,30.00,Monday         
226,6.39253882807886
227,16.671590750119
228,25.
2,2, 7, 2, 1, 5,30.00,40.00,Monday         
226,8.83802498967152
227,16.9681553351858
228,25.
2,2, 7, 2, 1, 5,40.00,50.00,Monday         
226,11.0874881371367
227,17.2587759114448
228,25.
2,2, 7, 2, 1, 5,50.00,60.00,Monday         
226,13.358791049443
227,17.5791615022618
228,25.
2,2, 7, 2, 1, 6, 0.00,10.00,Monday         
226,15.652729257637
227,17.8739408422256
228,25.
2,2, 7, 2, 1, 6,10.00,20.00,Monday         
226,18.6048960533877
227,18.2965795685045
228,25.
2,2, 7, 2, 1, 6,20.00,30.00,Monday         
226,20.9871409113592
227,18.6054804774175
228,25.
2,2, 7, 2, 1, 6,30.00,40.00,Monday         
226,24.5796629598542
227,19.0567750918003
228,25.
2,2, 7, 2, 1, 6,40.00,50.00,Monday         
226,28.1167833668546
227,19.4902988878999
228,25.
2,2, 7, 2, 1, 6,50.00,60.00,Monday         
226,31.7253034385412
227,19.9264866932061
228,25.
2,2, 7, 2, 1, 7, 0.00,10.00,Monday         
226,35.3457711412814
227,20.3937475445014
228,25.
2,2, 7, 2, 1, 7,10.00,20.00,Monday         
226,38.9788773182714
227,20.8456127688913
228,25.
2,2, 7, 2, 1, 7,20.00,30.00,Monday         
226,42.6244760092393
227,21.2871671548343
228,25.
2,2, 7, 2, 1, 7,30.00,40.00,Monday         
226,45.7356297802048
227,21.6650568346565
228,25.
2,2, 7, 2, 1, 7,40.00,50.00,Monday         
226,49.6979831855099
227,22.1283715766599
228,25.
2,2, 7, 2, 1, 7,50.00,60.00,Monday         
226,52.7853579396293
227,22.4937368913666
228,25.
2,2, 7, 2, 1, 8, 0.00,10.00,Monday         
226,55.8809031256577
227,23.0805025980302
228,25.
2,2, 7, 2, 1, 8,10.00,20.00,Monday         
226,58.9826547732998
227,23.6514550985133
228,25.
2,2, 7, 2, 1, 8,20.00,30.00,Monday         
226,62.789609953769
227,24.3137897353606
228,25.
2,2, 7, 2, 1, 8,30.00,40.00,Monday         
226,67.6072343907045
227,25.1961867404762
228,25.
2,2, 7, 2, 1, 8,40.00,50.00,Monday         
226,72.7954728381051
227,26.1613280526848
228,25.
2,2, 7, 2, 1, 8,50.00,60.00,Monday         
226,78.4623847294368
227,27.1981191042303
228,27.
2,2, 7, 2, 1, 9, 0.00,10.00,Monday         
226,82.2234164685049
227,28.3771066574085
228,27.
2,2, 7, 2, 1, 9,10.00,20.00,Monday         
226,88.7962474895174
227,29.4332983329801
228,29.
2,2, 7, 2, 1, 9,20.00,30.00,Monday         
226,93.1836383872961
227,30.6934322046626
228,29.
2,2, 7, 2, 1, 9,30.00,40.00,Monday         
226,99.1190364544267
227,31.5142204010226
228,31.
2,2, 7, 2, 1, 9,40.00,50.00,Monday         
226,102.00629989604
227,32.4693952708531
228,31.
2,2, 7, 2, 1, 9,50.00,60.00,Monday         
226,107.549524512028
227,33.1413241488983
228,33.
2,2, 7, 2, 1,10, 0.00,10.00,Monday         
226,109.625778494852
227,34.0034509832038
228,33.
2,2, 7, 2, 1,10,10.00,20.00,Monday         
226,110.306563132979
227,34.1047305510164
228,35.
2,2, 7, 2, 1,10,20.00,30.00,Monday         
226,111.084047489026
227,34.7578840035552
228,35.
2,2, 7, 2, 1,10,30.00,40.00,Monday         
226,116.269439466597
227,35.4974888864147
228,35.
2,2, 7, 2, 1,10,40.00,50.00,Monday         
226,121.412823115699
227,36.1902603461195
228,35.
2,2, 7, 2, 1,10,50.00,60.00,Monday         
226,126.475423788715
227,36.8710718310792
228,37.
2,2, 7, 2, 1,11, 0.00,10.00,Monday         
226,127.84560413372
227,37.7746703069917
228,37.
2,2, 7, 2, 1,11,10.00,20.00,Monday         
226,132.516933532263
227,38.4137181681562
228,37.
2,2, 7, 2, 1,11,20.00,30.00,Monday         
226,137.018771849068
227,39.0440284278031
228,39.
2,2, 7, 2, 1,11,30.00,40.00,Monday         
226,148.154540991905
227,41.429389041544
228,39.
2,2, 7, 2, 1,11,40.00,50.00,Monday         
226,158.09671259349
227,42.8699985989482
228,41.
2,2, 7, 2, 1,11,50.00,60.00,Monday         
226,163.853397995173
227,44.6387814366396
228,43.
2,2, 7, 2, 1,12, 0.00,10.00,Monday         
226,169.394681305089
227,46.3376354378363
228,45.
2,2, 7, 2, 1,12,10.00,20.00,Monday         
226,180.219005921839
227,48.8003788681076
228,45.
2,2, 7, 2, 1,12,20.00,30.00,Monday         
226,190.098074082344
227,50.1984062448868
228,50.
2,2, 7, 2, 1,12,30.00,40.00,Monday         
226,159.336394043591
227,52.8806058417409
228,50.
2,2, 7, 2, 1,12,40.00,50.00,Monday         
226,162.451404520775
227,53.4526017263394
228,55.
2,2, 7, 2, 1,12,50.00,60.00,Monday         
226,136.608328202454
227,55.9308328683278
228,55.
2,2, 7, 2, 1,13, 0.00,10.00,Monday         
226,138.373160926541
227,56.641940721438
228,55.
2,2, 7, 2, 1,13,10.00,20.00,Monday         
226,139.67557950901
227,57.340073973552
228,55.
2,2, 7, 2, 1,13,20.00,30.00,Monday         
226,141.516908687504
227,58.1743959136116
228,55.
2,2, 7, 2, 1,13,30.00,40.00,Monday         
226,140.369502821349
227,58.3098079000769
228,60.
2,2, 7, 2, 1,13,40.00,50.00,Monday         
226,115.836841322678
227,59.6860554222485
228,60.
2,2, 7, 2, 1,13,50.00,60.00,Monday         
226,114.016318432034
227,59.6223643099559
228,60.
2,2, 7, 2, 1,14, 0.00,10.00,Monday         
226,111.771951785891
227,59.2611727893617
228,60.
2,2, 7, 2, 1,14,10.00,20.00,Monday         
226,109.107244909525
227,58.8303011532311
228,60.
2,2, 7, 2, 1,14,20.00,30.00,Monday         
226,106.029462745076
227,57.9089126410689
228,60.
2,2, 7, 2, 1,14,30.00,40.00,Monday         
226,102.337338732065
227,57.2283307331068
228,60.
2,2, 7, 2, 1,14,40.00,50.00,Monday         
226,98.3520080384639
227,56.4220729734219
228,55.
2,2, 7, 2, 1,14,50.00,60.00,Monday         
226,112.843605712104
227,54.4463539875871
228,55.
2,2, 7, 2, 1,15, 0.00,10.00,Monday         
226,107.493906096671
227,53.5089977995271
228,55.
2,2, 7, 2, 1,15,10.00,20.00,Monday         
226,101.920734253209
227,52.4630268252625
228,55.
2,2, 7, 2, 1,15,20.00,30.00,Monday         
226,96.1809335779457
227,51.347801909161
228,50.
2,2, 7, 2, 1,15,30.00,40.00,Monday         
226,109.099217350458
227,48.8004425506062
228,50.
2,2, 7, 2, 1,15,40.00,50.00,Monday         
226,101.764282258055
227,47.5233022121471
228,50.
2,2, 7, 2, 1,15,50.00,60.00,Monday         
226,93.1400834326761
227,45.9039430705095
228,50.
2,2, 7, 2, 1,16, 0.00,10.00,Monday         
226,86.511233238873
227,44.4639863721671
228,45.
2,2, 7, 2, 1,16,10.00,20.00,Monday         
226,98.2240812526329
227,41.8647777545034
228,45.
2,2, 7, 2, 1,16,20.00,30.00,Monday         
226,91.1290478203566
227,40.5721906370391
228,41.
2,2, 7, 2, 1,16,30.00,40.00,Monday         
226,86.8962919949873
227,38.4033063493548
228,41.
2,2, 7, 2, 1,16,40.00,50.00,Monday         
226,78.9533732419188
227,36.7804933247989
228,39.
2,2, 7, 2, 1,16,50.00,60.00,Monday         
226,71.8603274089783
227,34.8817719100688
228,37.
2,2, 7, 2, 1,17, 0.00,10.00,Monday         
226,68.40365566516
227,33.5025070437179
228,35.
2,2, 7, 2, 1,17,10.00,20.00,Monday         
226,65.6751658534843
227,32.4495816988199
228,33.
2,2, 7, 2, 1,17,20.00,30.00,Monday         
226,62.236900463771
227,31.3210453944484
228,33.
2,2, 7, 2, 1,17,30.00,40.00,Monday         
226,56.7558302971065
227,30.4197391787427
228,31.
2,2, 7, 2, 1,17,40.00,50.00,Monday         
226,53.0924818985414
227,29.4121896387823
228,31.
2,2, 7, 2, 1,17,50.00,60.00,Monday         
226,48.9645299296491
227,28.8198880247462
228,29.
2,2, 7, 2, 1,18, 0.00,10.00,Monday         
226,46.7228623199862
227,28.3160432749005
228,29.
2,2, 7, 2, 1,18,10.00,20.00,Monday         
226,42.4392586746167
227,27.8394833677056
228,29.
2,2, 7, 2, 1,18,20.00,30.00,Monday         
226,38.7605365009923
227,27.4351399625511
228,27.
2,2, 7, 2, 1,18,30.00,40.00,Monday         
226,38.9626803628779
227,27.2780495726073
228,27.
2,2, 7, 2, 1,18,40.00,50.00,Monday         
226,37.2911659697861
227,27.1055858508919
228,27.
2,2, 7, 2, 1,18,50.00,60.00,Monday         
226,35.5547903020903
227,26.9275701596173
228,27.
2,2, 7, 2, 1,19, 0.00,10.00,Monday         
226,33.7539641361991
227,26.5961429565107
228,27.
2,2, 7, 2, 1,19,10.00,20.00,Monday         
226,31.8892364464078
227,26.2689362120805
228,27.
2,2, 7, 2, 1,19,20.00,30.00,Monday         
226,30.8365840815173
227,26.0280055434347
228,27.
2,2, 7, 2, 1,19,30.00,40.00,Monday         
226,26.7182884133974
227,25.4665242190771
228,27.
2,2, 7, 2, 1,19,40.00,50.00,Monday         
226,23.4300949864245
227,24.986301981276
228,25.
2,2, 7, 2, 1,19,50.00,60.00,Monday         
226,20.7474848995973
227,24.498364005011
228,25.
2,2, 7, 2, 1,20, 0.00,10.00,Monday         
226,17.4023863850963
227,23.9891401735713
228,25.
2,2, 7, 2, 1,20,10.00,20.00,Monday         
226,14.0679651889502
227,23.4768125362428
228,25.
2,2, 7, 2, 1,20,20.00,30.00,Monday         
226,10.731225668748
227,22.9604014799426
228,25.
2,2, 7, 2, 1,20,30.00,40.00,Monday         
226,9.12587279203155
227,22.6273442927708
228,25.
2,2, 7, 2, 1,20,40.00,50.00,Monday         
226,7.53985520852807
227,22.2989965153992
228,25.
2,2, 7, 2, 1,20,50.00,60.00,Monday         
226,5.97653215858093
227,21.9722005705338
228,25.
2,2, 7, 2, 1,21, 0.00,10.00,Monday         
226,4.44252530285311
227,21.7259996995252
228,25.
2,2, 7, 2, 1,21,10.00,20.00,Monday         
226,2.81079902783829
227,21.4442881463922
228,25.
2,2, 7, 2, 1,21,20.00,30.00,Monday         
226,0.0
227,21.0444837630591
228,25.
2,2, 7, 2, 1,21,30.00,40.00,Monday         
226,0.0
227,20.9518093536523
228,25.
2,2, 7, 2, 1,21,40.00,50.00,Monday         
226,0.0
227,20.8611879414503
228,25.
2,2, 7, 2, 1,21,50.00,60.00,Monday         
226,0.0
227,20.7717080941766
228,25.
2,2, 7, 2, 1,22, 0.00,10.00,Monday         
226,0.0
227,20.63640188858
228,25.
2,2, 7, 2, 1,22,10.00,20.00,Monday         
226,0.0
227,20.4794055580612
228,25.
2,2, 7, 2, 1,22,20.00,30.00,Monday         
226,0.0
227,20.3247472027215
228,25.
2,2, 7, 2, 1,22,30.00,40.00,Monday         
226,0.0
227,20.1803996140964
228,25.
2,2, 7, 2, 1,22,40.00,50.00,Monday         
226,0.0
227,20.0413402395895
228,25.
2,2, 7, 2, 1,22,50.00,60.00,Monday         
226,0.0
227,19.9062954147012
228,25.
2,2, 7, 2, 1,23, 0.00,10.00,Monday         
226,0.0
227,19.6420509598729
228,25.
2,2, 7, 2, 1,23,10.00,20.00,Monday         
226,0.0
227,19.3834265361338
228,25.
2,2, 7, 2, 1,23,20.00,30.00,Monday         
226,0.0
227,19.1242219956137
228,25.
2,2, 7, 2, 1,23,30.00,40.00,Monday         
226,0.0
227,18.8641459318847
228,25.
2,2, 7, 2, 1,23,40.00,50.00,Monday         
226,0.0
227,18.6038314553928
228,25.
2,2, 7, 2, 1,23,50.00,60.00,Monday         
226,0.0
227,18.3433241906869
228,25.
2,2, 7, 2, 1,24, 0.00,10.00,Monday         
226,0.0
227,18.3510962424754
228,25.
2,2, 7, 2, 1,24,10.00,20.00,Monday         
226,0.0
227,18.3750210019316
228,25.
2,2, 7, 2, 1,24,20.00,30.00,Monday         
226,0.0
227,18.4014826162234
228,25.
2,2, 7, 2, 1,24,30.00,40.00,Monday         
226,0.0
227,18.4324303009055
228,25.
2,2, 7, 2, 1,24,40.00,50.00,Monday         
226,0.0
227,18.4649831222594
228,25.
2,2, 7, 2, 1,24,50.00,60.00,Monday         
226,0.0
227,18.4928089075439
228,25.
2,3, 7, 3, 1, 1, 0.00,10.00,Tuesday        
226,0.0
227,18.4613729384436
228,25.
2,3, 7, 3, 1, 1,10.00,20.00,Tuesday        
226,0.0
227,18.4293549500276
228,25.
2,3, 7, 3, 1, 1,20.00,30.00,Tuesday        
226,0.0
227,18.397045996279
228,25.
2,3, 7, 3, 1, 1,30.00,40.00,Tuesday        
226,0.0
227,18.3645895733703
228,25.
2,3, 7, 3, 1, 1,40.00,50.00,Tuesday        
226,0.0
227,18.3317840638185
228,25.
2,3, 7, 3, 1, 1,50.00,60.00,Tuesday        
226,0.0
227,18.2986532423666
228,25.
2,3, 7, 3, 1, 2, 0.00,10.00,Tuesday        
226,0.0
227,18.0612238382382
228,25.
2,3, 7, 3, 1, 2,10.00,20.00,Tuesday        
226,0.0
227,17.8345240401817
228,25.
2,3, 7, 3, 1, 2,20.00,30.00,Tuesday        
226,0.0
227,17.6058791147027
228,25.
2,3, 7, 3, 1, 2,30.00,40.00,Tuesday        
226,0.0
227,17.376451409728
228,25.
2,3, 7, 3, 1, 2,40.00,50.00,Tuesday        
226,0.0
227,17.1467675378946
228,25.
2,3, 7, 3, 1, 2,50.00,60.00,Tuesday        
226,0.0
227,16.9170587001101
228,25.
2,3, 7, 3, 1, 3, 0.00,10.00,Tuesday        
226,0.0
227,16.8020343165699
228,25.
2,3, 7, 3, 1, 3,10.00,20.00,Tuesday        
226,0.0
227,16.6764322628561
228,25.
2,3, 7, 3, 1, 3,20.00,30.00,Tuesday        
226,0.0
227,16.5514034525314
228,25.
2,3, 7, 3, 1, 3,30.00,40.00,Tuesday        
226,0.0
227,16.42662008147
228,25.
2,3, 7, 3, 1, 3,40.00,50.00,Tuesday        
226,0.0
227,16.3018571681463
228,25.
2,3, 7, 3, 1, 3,50.00,60.00,Tuesday        
226,0.0
227,16.1770212926094
228,25.
2,3, 7, 3, 1, 4, 0.00,10.00,Tuesday        
226,0.0
227,16.197413230487
228,25.
2,3, 7, 3, 1, 4,10.00,20.00,Tuesday        
226,0.0
227,16.2165672092642
228,25.
2,3, 7, 3, 1, 4,20.00,30.00,Tuesday        
226,0.0
227,16.2416697059975
228,25.
2,3, 7, 3, 1, 4,30.00,40.00,Tuesday        
226,0.0
227,16.2638647652959
228,25.
2,3, 7, 3, 1, 4,40.00,50.00,Tuesday        
226,0.0
227,16.2841270457416
228,25.
2,3, 7, 3, 1, 4,50.00,60.00,Tuesday        
226,3.1182463854417
227,16.6998156914647
228,25.
2,3, 7, 3, 1, 5, 0.00,10.00,Tuesday        
226,4.15277837900668
227,16.7760812100348
228,25.
2,3, 7, 3, 1, 5,10.00,20.00,Tuesday        
226,5.20430558615411
227,16.8704811498151
228,25.
2,3, 7, 3, 1, 5,20.00,30.00,Tuesday        
226,6.25976456923129
227,16.9630063450016
228,25.
2,3, 7, 3, 1, 5,30.00,40.00,Tuesday        
226,7.11824615087813
227,17.032374850227
228,25.
2,3, 7, 3, 1, 5,40.00,50.00,Tuesday        
226,7.97195897859187
227,17.0999212857269
228,25.
2,3, 7, 3, 1, 5,50.00,60.00,Tuesday        
226,8.78869537055642
227,17.1627228518384
228,25.
2,3, 7, 3, 1, 6, 0.00,10.00,Tuesday        
226,9.60121208061982
227,17.2561755778155
228,25.
2,3, 7, 3, 1, 6,10.00,20.00,Tuesday        
226,10.4160083462159
227,17.4064927850904
228,25.
2,3, 7, 3, 1, 6,20.00,30.00,Tuesday        
226,11.2329993127391
227,17.5236889775495
228,25.
2,3, 7, 3, 1, 6,30.00,40.00,Tuesday        
226,12.7746532324095
227,17.7124663954314
228,25.
2,3, 7, 3, 1, 6,40.00,50.00,Tuesday        
226,14.3237601621165
227,17.9109764801189
228,25.
2,3, 7, 3, 1, 6,50.00,60.00,Tuesday        
226,15.8718962442329
227,18.1035252903959
228,25.
2,3, 7, 3, 1, 7, 0.00,10.00,Tuesday        
226,17.405376043417
227,18.3220238634943